/*--------------------------------*- C++ -*----------------------------------*\
| =========                 |                                                 |
| \\      /  F ield         | OpenFOAM: The Open Source CFD Toolbox           |
|  \\    /   O peration     | Version:  4.1                                   |
|   \\  /    A nd           | Web:      www.OpenFOAM.org                      |
|    \\/     M anipulation  |                                                 |
\*---------------------------------------------------------------------------*/
FoamFile
{
    version     2.0;
    format      ascii;
    class       volScalarField;
    location    "45";
    object      T;
}
// * * * * * * * * * * * * * * * * * * * * * * * * * * * * * * * * * * * * * //

dimensions      [0 0 0 1 0 0 0];

internalField   nonuniform List<scalar> 
12000
(
0.999583
1.00358
0.999807
1.00054
1.00055
1.00055
1.00053
0.999806
1.00359
0.999558
0.994978
0.996274
0.995539
0.99699
0.997021
0.997013
0.996979
0.995538
0.996307
0.994932
0.999371
0.994201
0.997396
0.998256
0.998158
0.998156
0.998249
0.997413
0.994231
0.999302
1.00384
0.99557
1.00083
1.00049
1.00029
1.00027
1.00049
1.00085
0.995558
1.00374
1.00496
0.996283
1.00237
1.00118
1.00117
1.00107
1.00118
1.00239
0.996226
1.00482
1.0044
0.996213
1.00249
1.00085
1.00117
1.00107
1.00084
1.00249
0.996167
1.00422
1.0037
0.996255
1.00231
1.00036
1.00094
1.00092
1.00034
1.00227
0.996244
1.00348
1.00312
0.996537
1.00212
0.999972
1.00073
1.00078
0.999937
1.00207
0.996559
1.00287
1.00256
0.996852
1.00189
0.999633
1.00052
1.00059
0.999584
1.00181
0.996889
1.00227
1.00202
0.997111
1.00158
0.999315
1.00028
1.00037
0.999265
1.0015
0.997148
1.00169
1.00157
0.997285
1.00126
0.999066
1.00006
1.00016
0.998992
1.00118
0.99733
1.00118
1.0012
0.997411
1.00097
0.998887
0.999863
0.999971
0.998777
1.00089
0.997457
1.00077
1.00094
0.997534
1.0007
0.998747
0.999685
0.999803
0.998622
1.00062
0.997548
1.00043
1.00072
0.997604
1.00043
0.998622
0.999511
0.999637
0.998492
1.00036
0.99759
1.00011
1.00052
0.997605
1.00016
0.998485
0.99932
0.999453
0.998357
1.00009
0.997571
0.999778
1.00031
0.99752
0.999836
0.998304
0.999083
0.999229
0.998187
0.999786
0.997475
0.999411
1.00004
0.997311
0.999411
0.998039
0.998768
0.998933
0.997949
0.999418
0.997277
0.998979
0.999624
0.996932
0.998825
0.997636
0.998331
0.998528
0.997609
0.998954
0.996944
0.998447
0.998943
0.99632
0.997977
0.997022
0.997716
0.997968
0.997128
0.99836
0.996441
0.997774
0.99779
0.995373
0.996734
0.996097
0.996845
0.997198
0.996449
0.997597
0.995726
0.996906
0.995802
0.993866
0.994887
0.994692
0.995595
0.996128
0.995503
0.996607
0.994739
0.995774
0.992367
0.991397
0.992126
0.992548
0.993781
0.994618
0.994193
0.995296
0.993402
0.994278
0.986526
0.987276
0.987951
0.989239
0.991087
0.992441
0.992372
0.993551
0.991603
0.992268
0.976831
0.980289
0.981587
0.984088
0.986972
0.989207
0.989785
0.991208
0.989184
0.989516
0.961226
0.968345
0.971645
0.975948
0.980491
0.98423
0.986006
0.988037
0.98594
0.985559
0.936597
0.94822
0.955839
0.962968
0.970047
0.976265
0.980185
0.983594
0.981656
0.979785
0.897261
0.915106
0.930396
0.942141
0.953137
0.963312
0.970967
0.977299
0.976571
0.970479
0.848367
0.872379
0.893638
0.910288
0.926262
0.941783
0.955102
0.966791
0.972019
0.9588
0.789439
0.815913
0.841522
0.863453
0.88579
0.90813
0.929893
0.94963
0.974008
0.94451
0.710205
0.73269
0.764584
0.795074
0.823983
0.851084
0.880872
0.905546
0.98236
0.985664
1.00359
1.00675
1.00301
1.00391
1.00387
1.00387
1.00391
1.00301
1.00679
1.00354
0.996298
0.996862
0.996392
0.998265
0.99822
0.998219
0.99825
0.996387
0.996958
0.99624
0.994234
0.989739
0.992956
0.993842
0.993639
0.993629
0.993824
0.99297
0.989825
0.99413
0.995615
0.987825
0.993447
0.992815
0.992449
0.992449
0.992794
0.993473
0.987907
0.995466
0.996338
0.987431
0.994337
0.992672
0.992439
0.992498
0.992653
0.994361
0.987533
0.996149
0.996283
0.987513
0.994649
0.992454
0.992624
0.992706
0.992427
0.994663
0.987589
0.996094
0.996348
0.988178
0.994883
0.992417
0.993029
0.993076
0.99238
0.994882
0.988203
0.996174
0.99666
0.989317
0.995337
0.992721
0.99366
0.993678
0.992671
0.995307
0.989283
0.996483
0.997016
0.990559
0.995868
0.993231
0.994364
0.994376
0.993163
0.99582
0.990481
0.996802
0.997328
0.991657
0.996333
0.993776
0.995002
0.995025
0.993684
0.996264
0.991559
0.997034
0.997571
0.992614
0.996713
0.99428
0.995537
0.995575
0.994177
0.996617
0.992496
0.997182
0.997779
0.993456
0.997016
0.994745
0.99598
0.996034
0.994637
0.996898
0.993307
0.997286
0.99801
0.994136
0.997257
0.99517
0.996338
0.99641
0.995046
0.997121
0.993968
0.99736
0.998212
0.994674
0.997437
0.99554
0.996615
0.996707
0.995396
0.997287
0.994487
0.997384
0.998367
0.995081
0.997527
0.995831
0.996801
0.996917
0.995671
0.997379
0.994859
0.997365
0.998453
0.995345
0.997515
0.996021
0.996885
0.997027
0.995856
0.997385
0.995071
0.99729
0.998417
0.995453
0.997371
0.996077
0.996847
0.997019
0.995929
0.997296
0.99513
0.997099
0.998177
0.995365
0.997044
0.995955
0.996652
0.996866
0.995859
0.997087
0.995016
0.996748
0.997616
0.994999
0.996445
0.995588
0.996246
0.996523
0.995603
0.996716
0.994695
0.996193
0.996556
0.994215
0.995437
0.994871
0.995553
0.995925
0.99511
0.996125
0.994115
0.995385
0.994652
0.992817
0.993833
0.99365
0.994456
0.994981
0.994304
0.995241
0.993206
0.994246
0.991354
0.990466
0.991361
0.991693
0.992774
0.993554
0.993078
0.993978
0.991873
0.992668
0.985901
0.986568
0.987578
0.988642
0.990229
0.991435
0.99128
0.992214
0.989986
0.990486
0.977125
0.980169
0.981799
0.98391
0.986353
0.98828
0.988679
0.98978
0.987371
0.987455
0.963221
0.969675
0.972889
0.976551
0.98038
0.98353
0.984908
0.986453
0.983799
0.983096
0.941445
0.952489
0.958969
0.96502
0.971008
0.976181
0.979284
0.981882
0.979058
0.976803
0.907973
0.92468
0.936972
0.946914
0.956254
0.964663
0.970739
0.97563
0.973301
0.966822
0.861813
0.88442
0.903885
0.919111
0.933064
0.946037
0.956735
0.966016
0.968078
0.954264
0.80094
0.828716
0.855768
0.878022
0.898169
0.916979
0.934613
0.950473
0.968476
0.937726
0.72647
0.753913
0.786425
0.817117
0.844687
0.869088
0.894383
0.914561
0.979167
0.969978
0.999819
1.00301
0.998896
0.999618
0.999577
0.999576
0.999614
0.998897
1.00306
0.999753
0.99557
0.996401
0.996001
0.997902
0.997907
0.9979
0.997879
0.995984
0.996494
0.995499
0.997443
0.99297
0.996511
0.997542
0.997366
0.997353
0.997516
0.996529
0.993066
0.997308
1.00089
0.993463
0.999433
0.998785
0.99844
0.998432
0.99876
0.999462
0.993523
1.00074
1.00243
0.994352
1.00165
0.999835
0.999725
0.999733
0.999807
1.00167
0.994377
1.00228
1.00256
0.994665
1.00228
0.999944
1.00037
1.00037
0.999913
1.0023
0.994655
1.00241
1.00239
0.994897
1.00218
0.999586
1.00052
1.0005
0.999555
1.00219
0.994858
1.00222
1.00222
0.99534
1.002
0.999258
1.00054
1.00051
0.999229
1.00199
0.995274
1.00203
1.002
0.995863
1.00184
0.999064
1.00053
1.00052
0.999029
1.00181
0.995762
1.0018
1.00172
0.996318
1.00163
0.998926
1.00048
1.00048
0.998875
1.00159
0.996199
1.00148
1.00143
0.996682
1.00138
0.998799
1.00037
1.00039
0.998735
1.00133
0.996556
1.00112
1.0012
0.996969
1.0011
0.99869
1.00021
1.00025
0.998613
1.00103
0.99684
1.0008
1.00101
0.997175
1.00082
0.998601
1.00003
1.0001
0.998508
1.00074
0.997059
1.0005
1.00084
0.997319
1.00054
0.998517
0.999832
0.999927
0.99841
1.00045
0.997205
1.0002
1.00066
0.997379
1.00022
0.998412
0.999603
0.999722
0.998295
1.00014
0.997266
0.999897
1.00048
0.997336
0.999854
0.998256
0.999324
0.999471
0.998142
0.999805
0.99723
0.999544
1.00022
0.997171
0.9994
0.998017
0.998974
0.999152
0.997923
0.999423
0.997087
0.999119
0.999809
0.996849
0.99881
0.997649
0.998516
0.998735
0.997606
0.998967
0.996815
0.998578
0.999134
0.996295
0.998006
0.997086
0.9979
0.998176
0.99715
0.99839
0.996376
0.997882
0.998003
0.995388
0.996865
0.996228
0.997047
0.997413
0.996499
0.997642
0.995711
0.996982
0.996127
0.993943
0.995207
0.994933
0.995849
0.996357
0.995582
0.996657
0.994753
0.9958
0.993015
0.991652
0.992771
0.992986
0.994141
0.994886
0.994302
0.99535
0.993414
0.994226
0.987939
0.987973
0.989159
0.990057
0.991669
0.992812
0.992524
0.993609
0.991576
0.992101
0.979754
0.982024
0.983751
0.985631
0.988026
0.98984
0.990046
0.991283
0.989075
0.98919
0.966856
0.972394
0.975543
0.978895
0.982563
0.985495
0.98657
0.988198
0.985706
0.985033
0.947059
0.956944
0.962935
0.968572
0.974221
0.978966
0.981553
0.984097
0.981304
0.979057
0.917689
0.932917
0.943655
0.95281
0.961457
0.969039
0.9742
0.978754
0.976153
0.969592
0.877016
0.897822
0.914994
0.92912
0.941929
0.953484
0.962604
0.971005
0.972101
0.957741
0.82386
0.849437
0.874119
0.895019
0.913374
0.92996
0.945087
0.959215
0.975196
0.942571
0.757247
0.78544
0.81737
0.845979
0.87042
0.891294
0.912836
0.929747
0.991499
0.976235
1.00055
1.00392
0.999619
1.00039
1.00036
1.00036
1.00039
0.999617
1.00397
1.00048
0.997023
0.998278
0.997906
1.00002
1.00004
1.00003
0.999995
0.997886
0.998374
0.99695
0.998313
0.993861
0.997548
0.998831
0.998651
0.998637
0.998802
0.997569
0.993956
0.998164
1.00058
0.99283
0.998788
0.998235
0.997846
0.997834
0.99821
0.998817
0.992878
1.00041
1.00126
0.992701
0.99984
0.997961
0.997793
0.997789
0.997937
0.999863
0.992716
1.00108
1.00093
0.992486
0.999941
0.997418
0.997782
0.997788
0.997391
0.999956
0.992505
1.00071
1.00046
0.992426
0.999576
0.996713
0.997581
0.997594
0.996683
0.999572
0.992447
1.00022
1.00008
0.992712
0.999247
0.996179
0.99738
0.997402
0.996144
0.99922
0.992703
0.999848
0.999751
0.9932
0.999049
0.99591
0.997299
0.997335
0.995865
0.999006
0.993166
0.999498
0.999464
0.993719
0.998905
0.995823
0.997301
0.997353
0.99576
0.998846
0.993678
0.999152
0.999247
0.994205
0.998775
0.995836
0.997325
0.997396
0.995749
0.998701
0.994164
0.998851
0.999106
0.994658
0.998663
0.995918
0.997357
0.997448
0.995808
0.99858
0.994615
0.998603
0.999033
0.995066
0.998571
0.996047
0.997396
0.997508
0.995917
0.998485
0.995013
0.998406
0.999001
0.995415
0.998481
0.996195
0.99743
0.997566
0.996046
0.998396
0.995335
0.998249
0.998979
0.995687
0.998366
0.996327
0.997439
0.997599
0.996164
0.998289
0.995568
0.998097
0.998928
0.995859
0.9982
0.996409
0.997395
0.997581
0.996239
0.998149
0.995706
0.997901
0.998798
0.995906
0.997945
0.996403
0.997272
0.997487
0.996241
0.997951
0.995733
0.997623
0.998521
0.995779
0.997544
0.996259
0.997032
0.997284
0.996134
0.997662
0.995613
0.997228
0.997991
0.99541
0.996919
0.99591
0.996622
0.996925
0.995874
0.997242
0.995309
0.996673
0.997036
0.994695
0.995959
0.995263
0.995968
0.996351
0.99541
0.996643
0.994769
0.9959
0.995382
0.993463
0.9945
0.994181
0.99497
0.995482
0.994674
0.995802
0.99393
0.994834
0.992581
0.991428
0.992311
0.99247
0.993478
0.994203
0.993576
0.994637
0.992705
0.993375
0.987979
0.988115
0.98903
0.989835
0.99127
0.992354
0.991999
0.993051
0.990988
0.991373
0.980545
0.982734
0.984113
0.985824
0.987996
0.989683
0.989777
0.990926
0.988637
0.988614
0.968829
0.974023
0.976678
0.979747
0.983112
0.985804
0.98668
0.988143
0.985492
0.984682
0.950875
0.960118
0.965358
0.970545
0.975756
0.980071
0.982291
0.984547
0.981473
0.979065
0.924324
0.938615
0.948222
0.956707
0.964687
0.97152
0.976014
0.980082
0.97702
0.970253
0.887067
0.906882
0.922717
0.936008
0.947826
0.958163
0.96614
0.973736
0.974123
0.959316
0.837396
0.862368
0.885988
0.905899
0.922806
0.937561
0.950944
0.963869
0.979042
0.945875
0.773949
0.802496
0.834121
0.861191
0.883131
0.901219
0.920391
0.935555
0.996987
0.980446
1.00057
1.00387
0.999579
1.00036
1.00032
1.00032
1.00035
0.999575
1.00393
1.0005
0.997055
0.998237
0.997916
1.00005
1.00006
1.00005
1.00002
0.997894
0.998341
0.996983
0.998221
0.993664
0.997382
0.998663
0.998456
0.998441
0.998628
0.997401
0.993764
0.998076
1.00035
0.992505
0.998468
0.997863
0.997435
0.997421
0.997834
0.998492
0.992546
1.00019
1.00116
0.992561
0.999766
0.997819
0.997616
0.997609
0.997792
0.999782
0.992564
1.001
1.00116
0.992769
1.0004
0.997818
0.998178
0.998178
0.997788
1.0004
0.992765
1.00096
1.00098
0.993149
1.00053
0.997627
0.998531
0.998536
0.997592
1.0005
0.993123
1.00078
1.00082
0.993748
1.00053
0.997441
0.99871
0.998725
0.997395
1.00049
0.993682
1.00063
1.00067
0.994414
1.00051
0.997376
0.998857
0.998887
0.997318
1.00047
0.994334
1.00044
1.0005
0.995022
1.00046
0.997392
0.99898
0.999028
0.997316
1.0004
0.994942
1.00021
1.00035
0.99553
1.00034
0.997431
0.999041
0.999111
0.997332
1.00029
0.995465
0.999966
1.00023
0.995952
1.00019
0.997476
0.999042
0.999135
0.997356
1.00014
0.995891
0.999739
1.00013
0.996297
1.00002
0.997529
0.999006
0.999122
0.99739
0.999976
0.99622
0.999546
1.00004
0.996565
0.999834
0.99758
0.99894
0.999081
0.997423
0.999795
0.996464
0.999354
0.999957
0.996743
0.999614
0.997603
0.998835
0.999004
0.997436
0.999587
0.99662
0.999137
0.999841
0.996814
0.999336
0.99757
0.998674
0.99887
0.997401
0.99934
0.996679
0.998867
0.999648
0.996756
0.998967
0.997448
0.998431
0.998658
0.997293
0.999034
0.996626
0.998518
0.999309
0.996529
0.998458
0.997191
0.998073
0.998339
0.997079
0.998642
0.99643
0.998056
0.998722
0.996072
0.997736
0.996739
0.997551
0.99787
0.996721
0.998128
0.996057
0.997437
0.997722
0.995285
0.996697
0.996004
0.996797
0.997196
0.996168
0.997443
0.995458
0.996609
0.996057
0.994011
0.995185
0.994857
0.995716
0.996241
0.995354
0.996527
0.994571
0.995498
0.993309
0.991983
0.992978
0.993114
0.994167
0.994898
0.994195
0.995304
0.993313
0.994007
0.98886
0.988751
0.98973
0.990494
0.991938
0.993013
0.992581
0.99368
0.991577
0.99199
0.981731
0.983568
0.98492
0.986567
0.988704
0.990355
0.990359
0.991547
0.989232
0.989238
0.970536
0.975244
0.97772
0.980686
0.983963
0.986569
0.987322
0.988802
0.986131
0.98535
0.953382
0.962009
0.966844
0.971853
0.976906
0.981055
0.983084
0.985313
0.982208
0.979819
0.92791
0.941525
0.950453
0.958629
0.966349
0.972893
0.977082
0.981038
0.977914
0.971118
0.891682
0.910971
0.925991
0.938818
0.950232
0.960114
0.967626
0.97497
0.975228
0.960275
0.842644
0.867478
0.890435
0.909758
0.926083
0.940208
0.952964
0.965439
0.980401
0.946687
0.779897
0.808567
0.839914
0.866239
0.887315
0.904562
0.922999
0.937442
0.99872
0.981257
1.00057
1.00387
0.999579
1.00036
1.00032
1.00032
1.00035
0.999575
1.00393
1.0005
0.997054
0.998237
0.997914
1.00005
1.00006
1.00004
1.00002
0.997895
0.998339
0.99698
0.998222
0.99366
0.997379
0.998659
0.998451
0.998436
0.998626
0.9974
0.993759
0.998072
1.00035
0.992497
0.998466
0.99786
0.997429
0.997416
0.997831
0.99849
0.992542
1.00019
1.00117
0.992552
0.999767
0.997818
0.997614
0.997603
0.997789
0.999782
0.992563
1.00099
1.00117
0.992761
1.0004
0.997816
0.998176
0.998172
0.997786
1.0004
0.992764
1.00095
1.00102
0.993129
1.00052
0.997623
0.998527
0.998532
0.99759
1.00051
0.993117
1.00078
1.00088
0.993715
1.00052
0.997432
0.998704
0.99872
0.997392
1.00048
0.993676
1.00064
1.00071
0.994388
1.00051
0.997364
0.998851
0.998882
0.997311
1.00046
0.994334
1.00044
1.00051
0.995011
1.00047
0.99738
0.998974
0.999024
0.997311
1.0004
0.994954
1.00019
1.00033
0.995529
1.00035
0.997418
0.999035
0.999107
0.997328
1.00028
0.995476
0.999944
1.00021
0.995951
1.0002
0.997463
0.999034
0.99913
0.997351
1.00013
0.995897
0.999727
1.0001
0.996296
1.00003
0.997516
0.998996
0.999116
0.997382
0.999961
0.996222
0.999547
1.00001
0.996561
0.999838
0.997564
0.998927
0.999072
0.997412
0.999771
0.996459
0.999371
0.999928
0.996732
0.999613
0.997585
0.998819
0.99899
0.997419
0.999557
0.996611
0.999157
0.999804
0.996797
0.999328
0.997548
0.998654
0.998852
0.997378
0.999308
0.996669
0.998876
0.999602
0.996733
0.99895
0.997421
0.998406
0.998635
0.997265
0.999
0.996616
0.998512
0.999252
0.996498
0.998432
0.997158
0.998041
0.998308
0.997048
0.998604
0.996418
0.998039
0.998654
0.99603
0.997698
0.996697
0.997509
0.99783
0.996683
0.998082
0.996039
0.997415
0.997641
0.995229
0.996644
0.995949
0.996744
0.997145
0.996121
0.997387
0.995429
0.996582
0.995957
0.993934
0.995111
0.994787
0.995649
0.996176
0.995298
0.996459
0.994527
0.995464
0.993179
0.991876
0.992877
0.993021
0.994078
0.994813
0.994123
0.995216
0.993249
0.99396
0.988677
0.988603
0.989591
0.990367
0.991818
0.992897
0.992483
0.993566
0.991486
0.991925
0.981456
0.983353
0.984728
0.98639
0.988536
0.990192
0.990221
0.991396
0.989101
0.989145
0.970121
0.974921
0.977446
0.980431
0.98372
0.986338
0.987122
0.988597
0.985944
0.985209
0.952785
0.961523
0.966446
0.971486
0.976556
0.980723
0.982791
0.985025
0.981947
0.97961
0.92714
0.940842
0.949884
0.958105
0.965846
0.972413
0.97665
0.98062
0.977539
0.970803
0.890813
0.910103
0.925229
0.938109
0.949544
0.959454
0.967025
0.974401
0.974729
0.959881
0.841845
0.866508
0.889457
0.908802
0.925136
0.939275
0.952086
0.964603
0.979636
0.946075
0.779016
0.807504
0.838792
0.865148
0.886251
0.903527
0.92203
0.936567
0.997955
0.980838
1.00055
1.00391
0.999617
1.00039
1.00036
1.00035
1.00039
0.999613
1.00397
1.00048
0.997021
0.998268
0.997893
1.00001
1.00003
1.00002
0.999978
0.997871
0.998366
0.996938
0.998308
0.993856
0.997541
0.998821
0.998636
0.998623
0.998789
0.997557
0.993946
0.998166
1.00059
0.992819
0.998787
0.998231
0.997836
0.997825
0.998207
0.998816
0.992869
1.00042
1.00133
0.992654
0.999841
0.997961
0.997792
0.997784
0.997942
0.999866
0.992704
1.00111
1.00099
0.99243
0.999956
0.997417
0.997787
0.997783
0.997397
0.999954
0.992456
1.00078
1.00048
0.992393
0.999603
0.996711
0.99759
0.997592
0.996684
0.999571
0.992375
1.0003
1.00006
0.9927
0.99928
0.996177
0.997391
0.997404
0.996138
0.999227
0.992643
0.999877
0.999717
0.993201
0.999081
0.995907
0.997312
0.99734
0.995854
0.999015
0.99312
0.999497
0.999422
0.993726
0.998931
0.995816
0.997312
0.997357
0.995746
0.998858
0.993635
0.999142
0.999204
0.994217
0.998792
0.995826
0.997333
0.997398
0.995734
0.99872
0.994122
0.998832
0.999069
0.994673
0.998673
0.995906
0.997361
0.997448
0.995791
0.998604
0.994571
0.99858
0.998995
0.995083
0.998575
0.996034
0.997395
0.997507
0.995896
0.998515
0.99497
0.998376
0.998958
0.99543
0.998479
0.996181
0.997425
0.997561
0.996022
0.998432
0.995299
0.998203
0.998932
0.995695
0.998355
0.99631
0.997427
0.997589
0.996135
0.998325
0.995539
0.998037
0.998873
0.995858
0.998175
0.996384
0.997377
0.997566
0.996203
0.998178
0.995681
0.997833
0.998731
0.995893
0.997904
0.996368
0.997247
0.997467
0.996198
0.997971
0.995706
0.997547
0.998435
0.995748
0.997487
0.996212
0.996995
0.997256
0.996086
0.99767
0.995586
0.997146
0.997873
0.995356
0.996845
0.995848
0.99657
0.996887
0.995821
0.997236
0.995278
0.99659
0.99687
0.994606
0.99586
0.99518
0.995898
0.9963
0.99535
0.996622
0.994731
0.995817
0.995147
0.99332
0.994365
0.994069
0.994873
0.99541
0.994602
0.995762
0.993882
0.994743
0.992245
0.991205
0.992122
0.992315
0.993343
0.994098
0.993481
0.99457
0.992639
0.99327
0.98748
0.987763
0.988752
0.989608
0.99107
0.992192
0.991861
0.992943
0.990889
0.991242
0.979789
0.98217
0.983684
0.985474
0.987686
0.989422
0.989561
0.99075
0.988477
0.98844
0.967671
0.973109
0.975993
0.979191
0.982619
0.98538
0.986325
0.98785
0.985231
0.984422
0.949145
0.95868
0.964269
0.969656
0.974968
0.979383
0.981704
0.984058
0.981055
0.978664
0.921985
0.936519
0.946548
0.955311
0.963446
0.970418
0.975054
0.979256
0.976329
0.969589
0.884257
0.904128
0.92035
0.933959
0.94599
0.956518
0.96469
0.972466
0.973113
0.958447
0.834308
0.858967
0.88273
0.902921
0.920083
0.935064
0.948661
0.961759
0.977274
0.944288
0.770289
0.798486
0.830112
0.857482
0.879794
0.898235
0.917708
0.933134
0.995089
0.979522
0.999819
1.00301
0.998896
0.999618
0.999577
0.999575
0.999611
0.998892
1.00306
0.999752
0.995571
0.996398
0.995985
0.997885
0.997892
0.997884
0.997858
0.995966
0.996493
0.995494
0.997458
0.992983
0.996528
0.997559
0.997383
0.997372
0.997533
0.99655
0.993087
0.997328
1.00092
0.993462
0.999455
0.998805
0.998462
0.998452
0.998783
0.999487
0.993523
1.00077
1.00246
0.994333
1.00166
0.999845
0.999743
0.999733
0.999825
1.00168
0.994347
1.00232
1.00257
0.994633
1.00229
0.999935
1.00036
1.00035
0.999918
1.0023
0.994614
1.00244
1.00238
0.994859
1.00217
0.999561
1.00047
1.00048
0.999534
1.00218
0.994831
1.0022
1.00219
0.995304
1.00198
0.999228
1.00046
1.00048
0.999185
1.00197
0.99525
1.00199
1.00196
0.995829
1.0018
0.999027
1.00044
1.00048
0.998967
1.00178
0.995736
1.00176
1.00169
0.996281
1.00159
0.998887
1.00039
1.00043
0.998806
1.00155
0.996162
1.00145
1.00141
0.996645
1.00132
0.998764
1.00028
1.00034
0.99866
1.00128
0.996502
1.00111
1.00115
0.996932
1.00105
0.99866
1.00012
1.0002
0.998532
1.00099
0.99678
1.00078
1.00096
0.997136
1.00077
0.998577
0.999947
1.00004
0.998428
1.00071
0.997001
1.00048
1.00079
0.997272
1.00049
0.998493
0.999748
0.999867
0.99833
1.00042
0.997151
1.00017
1.00062
0.997323
1.00016
0.99838
0.999519
0.999659
0.998216
1.00011
0.997216
0.999849
1.00041
0.997281
0.999789
0.998214
0.999239
0.999403
0.99806
0.999768
0.997184
0.99949
1.00012
0.997117
0.999328
0.997962
0.998886
0.999079
0.997838
0.999375
0.997044
0.999058
0.99968
0.996772
0.998722
0.997576
0.99842
0.998655
0.997518
0.9989
0.996769
0.998516
0.998958
0.996181
0.997891
0.996988
0.997788
0.998083
0.997055
0.998308
0.99632
0.997819
0.997761
0.995221
0.99671
0.996098
0.996911
0.997301
0.996393
0.997544
0.995643
0.996907
0.995778
0.9937
0.994996
0.994757
0.995675
0.996217
0.995456
0.996539
0.994669
0.995702
0.992501
0.991292
0.992471
0.992738
0.993904
0.994695
0.994137
0.995196
0.993301
0.994094
0.98716
0.987425
0.988715
0.989688
0.991327
0.99253
0.992288
0.99339
0.991409
0.991914
0.978557
0.981152
0.983058
0.98505
0.987502
0.989395
0.989682
0.990954
0.988808
0.988913
0.965005
0.970964
0.974415
0.977944
0.981713
0.984762
0.98597
0.987673
0.985269
0.984598
0.944187
0.954625
0.961104
0.967008
0.972827
0.977749
0.980542
0.983233
0.980583
0.978369
0.913587
0.929387
0.940786
0.950306
0.959209
0.967047
0.972503
0.977298
0.97495
0.968436
0.871854
0.893003
0.910891
0.925423
0.938532
0.950406
0.959915
0.968662
0.970211
0.956066
0.817184
0.84278
0.868158
0.889621
0.908377
0.925307
0.940831
0.955311
0.971961
0.939526
0.748772
0.776663
0.809128
0.838474
0.863648
0.885191
0.907322
0.924668
0.987353
0.973888
1.0036
1.00678
1.00306
1.00396
1.00392
1.00392
1.00396
1.00306
1.00684
1.00355
0.996317
0.996945
0.996476
0.99835
0.998309
0.998303
0.998332
0.996472
0.997069
0.996278
0.994239
0.989817
0.99304
0.993915
0.993711
0.993702
0.993899
0.993062
0.98994
0.994164
0.995609
0.987858
0.993479
0.992833
0.992483
0.992476
0.992814
0.993495
0.987911
0.995506
0.996329
0.987416
0.994322
0.992662
0.992493
0.992482
0.992638
0.994328
0.987413
0.996194
0.99627
0.98747
0.994602
0.992416
0.99267
0.992659
0.992405
0.994603
0.987414
0.996107
0.99633
0.988119
0.994817
0.99235
0.993021
0.993025
0.992347
0.994813
0.988029
0.996136
0.996637
0.989254
0.995264
0.992642
0.993605
0.99362
0.99262
0.995247
0.989138
0.996407
0.996985
0.990497
0.995795
0.99314
0.994281
0.994307
0.993096
0.995766
0.99036
0.996712
0.997269
0.991622
0.996266
0.993679
0.994911
0.994946
0.993613
0.996216
0.991455
0.996945
0.997497
0.9926
0.996642
0.994194
0.995448
0.995495
0.994109
0.996574
0.992389
0.997108
0.997724
0.993427
0.996936
0.994668
0.995891
0.995957
0.994561
0.996862
0.993185
0.997223
0.99796
0.994092
0.997166
0.995097
0.996246
0.996334
0.994967
0.9971
0.993852
0.997289
0.998146
0.994622
0.997337
0.995466
0.996517
0.996628
0.995315
0.997263
0.994388
0.997299
0.99828
0.995019
0.997421
0.99575
0.996696
0.996832
0.995586
0.997342
0.994767
0.997274
0.998329
0.995273
0.9974
0.995926
0.996772
0.996934
0.995764
0.997344
0.99498
0.997197
0.998237
0.995365
0.997241
0.995966
0.99672
0.996916
0.995827
0.997243
0.995038
0.996998
0.997945
0.995237
0.996883
0.995818
0.996504
0.996743
0.995743
0.997008
0.994921
0.996633
0.997326
0.994806
0.996231
0.995411
0.996068
0.996372
0.995467
0.996601
0.994589
0.996065
0.996183
0.993936
0.995152
0.99464
0.995331
0.995735
0.994943
0.995968
0.993989
0.995238
0.99416
0.992426
0.993455
0.99335
0.994173
0.994737
0.994093
0.995038
0.993051
0.99407
0.990681
0.989931
0.990855
0.991293
0.992401
0.993229
0.992804
0.993716
0.991674
0.992453
0.984945
0.985825
0.986889
0.988079
0.989716
0.990985
0.99091
0.991867
0.989723
0.990213
0.975686
0.979067
0.980819
0.983079
0.985611
0.987631
0.988147
0.989301
0.987005
0.987097
0.960894
0.967882
0.97139
0.975245
0.979227
0.98254
0.984105
0.985767
0.983273
0.982606
0.937406
0.94932
0.956542
0.962922
0.969168
0.974621
0.978023
0.980853
0.978274
0.976113
0.901985
0.919626
0.933076
0.943544
0.953293
0.962155
0.968699
0.974001
0.972108
0.965769
0.854771
0.87807
0.898537
0.914269
0.928627
0.942098
0.953412
0.963318
0.966176
0.952789
0.791429
0.819622
0.847694
0.870701
0.891446
0.910757
0.929047
0.945758
0.965285
0.934972
0.714745
0.741728
0.774369
0.805666
0.834222
0.859529
0.885754
0.906817
0.973789
0.96771
0.999563
1.00354
0.999752
1.00048
1.00049
1.00049
1.00047
0.999751
1.00356
0.999502
0.994941
0.996229
0.995482
0.996924
0.996953
0.996948
0.996911
0.995479
0.996282
0.994863
0.999323
0.99412
0.997297
0.998149
0.99805
0.998044
0.998137
0.997319
0.994178
0.999163
1.0038
0.9955
1.00075
1.00041
1.00017
1.00017
1.00041
1.00078
0.995538
1.00362
1.00493
0.996242
1.00231
1.00112
1.00101
1.00102
1.00112
1.00235
0.996248
1.00477
1.00438
0.996204
1.00247
1.00084
1.00104
1.00105
1.0008
1.00249
0.996179
1.00424
1.00368
0.996274
1.00232
1.00039
1.00091
1.00091
1.00033
1.0023
0.996235
1.00354
1.00311
0.996575
1.00215
1.00001
1.00077
1.00078
0.99996
1.00209
0.996535
1.00294
1.00256
0.996903
1.00193
0.999684
1.0006
1.00061
0.999634
1.00184
0.99687
1.00235
1.00202
0.997143
1.00163
0.999372
1.00038
1.00041
0.999322
1.00152
0.997137
1.00176
1.00156
0.997306
1.00131
0.999106
1.00015
1.0002
0.999048
1.00119
0.997333
1.00123
1.00119
0.997453
1.00102
0.998912
0.999945
1
0.998842
1.00089
0.99747
1.00081
1.00092
0.997584
1.00075
0.998764
0.999766
0.999831
0.998684
1.0006
0.997547
1.00046
1.0007
0.997647
1.00048
0.998636
0.99959
0.999665
0.998548
1.00034
0.997579
1.00013
1.0005
0.997639
1.00019
0.998498
0.999393
0.999482
0.998404
1.00008
0.997561
0.999794
1.00028
0.997538
0.999856
0.998314
0.999146
0.999256
0.998224
0.999772
0.997466
0.999427
0.999983
0.997304
0.999416
0.99804
0.998818
0.998958
0.997978
0.999414
0.997265
0.998998
0.99954
0.996905
0.998803
0.997625
0.998368
0.998556
0.997635
0.998971
0.996932
0.998471
0.998808
0.996269
0.997924
0.996993
0.997739
0.998001
0.997153
0.998403
0.996434
0.997801
0.997562
0.995275
0.996626
0.996033
0.996843
0.997224
0.996472
0.997655
0.995725
0.996933
0.995403
0.993674
0.994688
0.994558
0.995551
0.996124
0.995515
0.996658
0.994736
0.995792
0.991662
0.991016
0.99178
0.99229
0.993653
0.994552
0.994167
0.995321
0.993385
0.994275
0.985289
0.986532
0.987349
0.988762
0.990782
0.992248
0.992259
0.993517
0.991547
0.992223
0.974684
0.978849
0.980512
0.98322
0.986326
0.988761
0.989495
0.991053
0.989051
0.989395
0.95759
0.965655
0.969712
0.974368
0.979213
0.983295
0.98537
0.987647
0.985663
0.985308
0.929994
0.943183
0.95235
0.960156
0.967702
0.974474
0.978917
0.982761
0.981109
0.979311
0.888833
0.908044
0.924859
0.937414
0.949059
0.960049
0.968554
0.975648
0.975585
0.969679
0.840973
0.865755
0.886661
0.90349
0.920065
0.936446
0.95083
0.963643
0.970157
0.957556
0.778292
0.80467
0.831109
0.853288
0.876258
0.89949
0.922496
0.943767
0.970861
0.942971
0.696614
0.715778
0.746974
0.77905
0.809856
0.838534
0.869504
0.895188
0.975865
0.985244
0.653583
0.67006
0.699175
0.732767
0.765725
0.795665
0.82998
0.85272
0.940029
0.97691
0.624674
0.639071
0.667054
0.700373
0.733524
0.76389
0.799272
0.823328
0.906172
0.9855
0.595236
0.608305
0.63527
0.667258
0.699191
0.728504
0.763149
0.790163
0.863567
0.977741
0.565783
0.577717
0.603866
0.633892
0.663563
0.69079
0.7229
0.75182
0.814342
0.940263
0.536661
0.547458
0.572813
0.600556
0.62753
0.652017
0.680322
0.708698
0.759671
0.881864
0.508113
0.517647
0.542035
0.567105
0.590888
0.612149
0.636227
0.662688
0.702395
0.812408
0.480282
0.488393
0.51141
0.53348
0.553782
0.571422
0.590908
0.614446
0.644926
0.738214
0.453215
0.459764
0.480904
0.499729
0.516412
0.530285
0.545189
0.564805
0.587957
0.663102
0.426906
0.431864
0.450633
0.466047
0.478886
0.488764
0.498921
0.514047
0.530984
0.58958
0.401399
0.404807
0.420755
0.432445
0.440803
0.446169
0.451483
0.461995
0.473525
0.517729
0.376696
0.378526
0.391134
0.398499
0.401904
0.402664
0.403616
0.409664
0.416617
0.448581
0.352645
0.352781
0.361414
0.364
0.362661
0.359301
0.356558
0.358574
0.36173
0.383777
0.329007
0.327319
0.331589
0.329504
0.323995
0.317177
0.311421
0.310076
0.310191
0.324569
0.305582
0.302058
0.302039
0.295779
0.28675
0.277167
0.269121
0.265195
0.263
0.271733
0.282307
0.277128
0.273193
0.263365
0.251495
0.239864
0.230221
0.224455
0.220571
0.225277
0.259333
0.25271
0.245334
0.232603
0.218589
0.205582
0.194936
0.187933
0.182814
0.184625
0.23679
0.228922
0.21866
0.203708
0.188219
0.174417
0.16323
0.155411
0.149351
0.148965
0.214716
0.205876
0.193321
0.176809
0.160462
0.146337
0.134937
0.126588
0.119823
0.117767
0.193186
0.183687
0.169439
0.151987
0.135338
0.121263
0.109918
0.101278
0.0940437
0.0905489
0.172332
0.16248
0.147123
0.129305
0.112827
0.099129
0.0880134
0.079163
0.0716707
0.0670274
0.152329
0.142389
0.126473
0.108797
0.0928898
0.0797552
0.0689606
0.0601319
0.0527195
0.0473825
0.133365
0.123543
0.107569
0.090459
0.0754207
0.0629671
0.0527235
0.0442746
0.0373258
0.0317943
0.115621
0.106068
0.0904632
0.0742674
0.0602672
0.0487015
0.0392829
0.0315685
0.0254002
0.0202533
0.0992458
0.0900675
0.0751734
0.0601702
0.0473387
0.0368663
0.0285143
0.0218159
0.016634
0.012297
0.0843431
0.0756182
0.0616968
0.0480372
0.0365137
0.027302
0.0201891
0.014646
0.0105117
0.00715189
0.0709697
0.0627565
0.0499994
0.0377506
0.027639
0.0197958
0.0139774
0.00957892
0.00643307
0.0040138
0.0591364
0.051472
0.0400036
0.0291937
0.0205411
0.0140819
0.00948925
0.00612205
0.00383131
0.00219478
0.0488068
0.0417214
0.0315711
0.0222162
0.0150103
0.00985316
0.00633538
0.00383786
0.0022336
0.00117801
0.039904
0.0334512
0.0245726
0.0166466
0.0108007
0.00679602
0.00417025
0.0023719
0.00128299
0.000622254
0.0323279
0.0265789
0.0188752
0.0122983
0.00767371
0.0046413
0.0027235
0.00146218
0.000736829
0.00032734
0.673309
0.696913
0.729892
0.763656
0.795374
0.823154
0.853475
0.872336
0.949357
0.960248
0.645666
0.667254
0.700499
0.735014