/*--------------------------------*- C++ -*----------------------------------*\
| =========                 |                                                 |
| \\      /  F ield         | OpenFOAM: The Open Source CFD Toolbox           |
|  \\    /   O peration     | Version:  4.1                                   |
|   \\  /    A nd           | Web:      www.OpenFOAM.org                      |
|    \\/     M anipulation  |                                                 |
\*---------------------------------------------------------------------------*/
FoamFile
{
    version     2.0;
    format      ascii;
    class       volScalarField;
    location    "15";
    object      T;
}
// * * * * * * * * * * * * * * * * * * * * * * * * * * * * * * * * * * * * * //

dimensions      [0 0 0 1 0 0 0];

internalField   nonuniform List<scalar> 
12000
(
0.999312
1.00333
0.999566
1.0003
1.00032
1.00032
1.0003
0.999566
1.00334
0.999288
0.993555
0.994953
0.994272
0.995749
0.995792
0.995785
0.99574
0.994275
0.994991
0.993516
0.995644
0.990751
0.994079
0.995013
0.994949
0.99495
0.995013
0.994107
0.990796
0.995595
0.99599
0.988276
0.993814
0.993644
0.993517
0.993502
0.993661
0.993857
0.988301
0.995936
0.990304
0.982596
0.989189
0.98834
0.98848
0.988395
0.988377
0.989262
0.982618
0.990264
0.979198
0.972545
0.979682
0.978646
0.979218
0.97914
0.97871
0.97979
0.972654
0.979219
0.962946
0.957796
0.965207
0.964253
0.965233
0.965258
0.964361
0.965377
0.958071
0.963107
0.940517
0.937185
0.944799
0.944168
0.945525
0.945645
0.944352
0.945113
0.937706
0.940939
0.910605
0.9093
0.917221
0.917141
0.918888
0.919085
0.917459
0.917757
0.910171
0.911453
0.872292
0.873094
0.88147
0.882165
0.884325
0.884602
0.882702
0.882366
0.874464
0.873776
0.825144
0.828012
0.837031
0.838685
0.841255
0.84164
0.839512
0.838448
0.830096
0.827537
0.769291
0.774136
0.783936
0.786639
0.789628
0.790158
0.787864
0.786056
0.777179
0.772936
0.705546
0.712227
0.722811
0.726594
0.730013
0.730728
0.72836
0.72585
0.716491
0.710807
0.63538
0.643666
0.654977
0.659794
0.66364
0.664581
0.662243
0.659151
0.649453
0.642623
0.560869
0.570462
0.582362
0.588095
0.592344
0.593552
0.591356
0.58787
0.578058
0.570437
0.484503
0.495047
0.50731
0.513801
0.518405
0.519915
0.517979
0.514326
0.504686
0.496667
0.408919
0.420034
0.432386
0.43944
0.444329
0.446163
0.444598
0.441021
0.431858
0.423839
0.336646
0.347954
0.360105
0.367503
0.372592
0.374754
0.373656
0.370381
0.361984
0.354328
0.269866
0.281015
0.292686
0.300208
0.305399
0.307873
0.307306
0.304522
0.297127
0.290132
0.21024
0.220918
0.231866
0.239303
0.244492
0.247236
0.247225
0.245068
0.238835
0.232713
0.158807
0.168742
0.178784
0.185947
0.191028
0.193981
0.19451
0.19305
0.188055
0.182925
0.115984
0.124946
0.133959
0.140684
0.145557
0.148634
0.149652
0.148894
0.145132
0.141028
0.0816276
0.0894308
0.0973385
0.103491
0.108061
0.111168
0.112592
0.11249
0.109885
0.106769
0.0551497
0.0616517
0.0684105
0.0738809
0.0780641
0.0811018
0.0828293
0.0832987
0.0817258
0.0795115
0.0356362
0.040754
0.0463363
0.051043
0.0547663
0.0576415
0.0595593
0.0604967
0.0598042
0.058372
0.0219578
0.0257046
0.0300997
0.0339857
0.0371912
0.03982
0.0418121
0.0431049
0.0431411
0.0423672
0.0128582
0.0153777
0.0186209
0.0216642
0.0243144
0.0266283
0.0285836
0.0301171
0.0307473
0.0304885
0.00721071
0.00873891
0.0108984
0.0131017
0.0151672
0.0171007
0.0189056
0.0205543
0.0216937
0.0218822
0.00386845
0.00469434
0.00598325
0.00742914
0.00891228
0.0104167
0.0119702
0.0135881
0.0151779
0.0157162
0.00193992
0.00233341
0.00302953
0.00388291
0.00482408
0.00584883
0.00702334
0.00838517
0.0103961
0.0118571
1.00334
1.00651
1.00279
1.0037
1.00366
1.00366
1.00369
1.00279
1.00655
1.00329
0.994976
0.995652
0.995233
0.997128
0.997096
0.997095
0.997116
0.995232
0.995752
0.994924
0.990783
0.986587
0.989933
0.990886
0.990715
0.990707
0.990875
0.989957
0.986686
0.990697
0.988317
0.981146
0.987036
0.986565
0.986271
0.986276
0.986559
0.987086
0.981261
0.988213
0.982641
0.974836
0.982237
0.980897
0.980803
0.980871
0.980909
0.982311
0.975006
0.982549
0.972595
0.965602
0.973585
0.971973
0.972381
0.97248
0.972007
0.973697
0.965813
0.972599
0.957849
0.952357
0.960422
0.958918
0.959909
0.959989
0.958995
0.960607
0.952638
0.958035
0.937233
0.93371
0.941793
0.940655
0.942165
0.942245
0.940806
0.942091
0.934133
0.937691
0.909329
0.908068
0.91634
0.915841
0.917796
0.917913
0.916111
0.916847
0.90877
0.910189
0.873084
0.874191
0.882908
0.883282
0.885642
0.885834
0.883736
0.883733
0.875355
0.874523
0.827929
0.83147
0.840831
0.842231
0.844992
0.845291
0.842971
0.842119
0.833305
0.830218
0.773932
0.779868
0.789997
0.792529
0.795683
0.796125
0.793667
0.791932
0.782618
0.777406
0.711851
0.719954
0.730941
0.734637
0.738177
0.738802
0.736289
0.733731
0.723917
0.716859
0.643055
0.653044
0.664862
0.669679
0.673592
0.674442
0.671971
0.668728
0.658518
0.649988
0.569547
0.581066
0.593565
0.599393
0.603658
0.604773
0.602454
0.59872
0.588323
0.578789
0.493769
0.506388
0.519339
0.526005
0.530584
0.531995
0.529943
0.525961
0.515652
0.505627
0.418345
0.431606
0.444723
0.452007
0.456843
0.45857
0.456896
0.452929
0.443029
0.43299
0.345836
0.359278
0.372249
0.379908
0.384928
0.386976
0.385767
0.382069
0.372894
0.363274
0.278492
0.291674
0.304195
0.311987
0.317105
0.319455
0.318774
0.315559
0.307379
0.29854
0.218066
0.230589
0.242393
0.250092
0.255212
0.257825
0.257697
0.255116
0.248127
0.240337
0.165691
0.177233
0.1881
0.195504
0.200526
0.203342
0.203752
0.20189
0.196197
0.189614
0.121869
0.132185
0.141957
0.148893
0.153717
0.156659
0.157556
0.156431
0.152047
0.146723
0.086532
0.0954412
0.104015
0.110348
0.114879
0.117859
0.119161
0.118737
0.115592
0.111488
0.0591267
0.0665233
0.0738432
0.0794694
0.0836229
0.0865482
0.0881557
0.0883501
0.0863211
0.0833324
0.0387475
0.0446068
0.0506555
0.0555027
0.0592091
0.0619909
0.0637954
0.0645019
0.0634306
0.0614079
0.0242722
0.028657
0.0334556
0.0374828
0.040689
0.0432473
0.0451386
0.0462411
0.0459651
0.0447484
0.014489
0.0175498
0.0211639
0.0243678
0.0270425
0.0293101
0.0311826
0.0325638
0.0329357
0.032344
0.00824607
0.0102119
0.0127459
0.0151509
0.0172781
0.0191965
0.020945
0.022482
0.0234092
0.0233352
0.00446875
0.00562248
0.00725369
0.00893229
0.0105207
0.0120474
0.0135771
0.0151256
0.0165514
0.0168624
0.00228777
0.00289397
0.00384217
0.00491187
0.00599622
0.00709898
0.00830529
0.00966003
0.0115826
0.0127786
0.999578
1.00279
0.998686
0.999412
0.999373
0.999371
0.999408
0.998687
1.00284
0.999513
0.994301
0.995242
0.99489
0.996813
0.996829
0.996823
0.996792
0.994877
0.995339
0.994237
0.994122
0.989945
0.993608
0.994702
0.994557
0.994546
0.994682
0.993636
0.990054
0.994005
0.993864
0.987048
0.993272
0.992777
0.992501
0.992497
0.992765
0.993323
0.98714
0.993755
0.989236
0.982243
0.990008
0.988507
0.988528
0.988545
0.988508
0.990075
0.982335
0.989178
0.979716
0.973582
0.98201
0.980226
0.980875
0.98089
0.980253
0.982118
0.973704
0.979746
0.965214
0.960401
0.96899
0.96731
0.968598
0.96861
0.967387
0.969168
0.960611
0.965388
0.944765
0.941734
0.950372
0.949045
0.950852
0.950887
0.949206
0.950675
0.942111
0.945186
0.917102
0.916229
0.92505
0.924332
0.926562
0.92665
0.924615
0.925554
0.916881
0.917932
0.881218
0.882721
0.891935
0.892056
0.894662
0.894832
0.892519
0.892748
0.883819
0.882645
0.836592
0.840532
0.850332
0.851463
0.854428
0.854708
0.852195
0.851598
0.842292
0.838855
0.783226
0.789549
0.800081
0.802335
0.805648
0.806071
0.80344
0.801972
0.792221
0.786641
0.721752
0.730287
0.74164
0.745054
0.74871
0.749314
0.74665
0.744354
0.734165
0.726674
0.653458
0.66396
0.676105
0.680647
0.684639
0.685464
0.682861
0.679857
0.669327
0.660277
0.58027
0.592376
0.605188
0.610758
0.615069
0.616153
0.613716
0.610189
0.599512
0.589344
0.504563
0.517829
0.531096
0.537532
0.54213
0.543502
0.541342
0.537529
0.526967
0.516179
0.428927
0.442875
0.456323
0.463411
0.468246
0.469926
0.468145
0.464304
0.454164
0.443266
0.355922
0.37007
0.383387
0.39089
0.395894
0.397885
0.39657
0.392952
0.383538
0.373009
0.28783
0.301718
0.314597
0.322271
0.32736
0.329648
0.328858
0.325676
0.317255
0.307506
0.226458
0.239676
0.251839
0.259451
0.264534
0.267081
0.266841
0.264255
0.257022
0.248365
0.173023
0.185226
0.196441
0.203786
0.208765
0.211514
0.211811
0.209915
0.203977
0.196605
0.128103
0.139028
0.149124
0.156024
0.160803
0.163679
0.164466
0.163286
0.158664
0.15265
0.0916896
0.101149
0.110017
0.116331
0.120818
0.123736
0.124934
0.124441
0.121076
0.11639
0.0632733
0.0711643
0.0787489
0.0843713
0.0884841
0.0913537
0.0928672
0.0929866
0.0907594
0.0872975
0.0419801
0.0482832
0.0545751
0.0594359
0.0631074
0.0658406
0.067563
0.068195
0.0669516
0.0645557
0.026705
0.0314895
0.0365203
0.0405848
0.0437653
0.0462819
0.0481042
0.0491379
0.0487162
0.0472131
0.016246
0.019671
0.0235157
0.0267836
0.0294445
0.0316768
0.0334935
0.0348163
0.0350692
0.0342591
0.00943914
0.0117306
0.0145078
0.0170114
0.0191429
0.0210339
0.0227396
0.0242327
0.0250696
0.0248244
0.00523073
0.00665385
0.00853049
0.0103406
0.0119584
0.0134702
0.0149723
0.0164958
0.0178728
0.0180378
0.00274097
0.00355387
0.00472411
0.00593644
0.00707272
0.00817732
0.00937327
0.01072
0.0126651
0.0137542
1.00031
1.0037
0.999413
1.00019
1.00016
1.00016
1.00019
0.999411
1.00375
1.00024
0.995779
0.99714
0.996816
0.998954
0.998986
0.998977
0.998928
0.9968
0.997241
0.995713
0.995064
0.990901
0.994707
0.996051
0.995901
0.995888
0.996027
0.994737
0.991009
0.994932
0.993718
0.986571
0.992775
0.992369
0.992047
0.99204
0.992357
0.992825
0.98665
0.993593
0.988393
0.980907
0.988502
0.986923
0.986883
0.986888
0.986928
0.988571
0.980987
0.988311
0.978669
0.971967
0.980205
0.978222
0.9788
0.978825
0.978251
0.980311
0.972115
0.978637
0.964244
0.958856
0.967267
0.965298
0.966504
0.966551
0.965372
0.967433
0.959117
0.964348
0.94407
0.940521
0.948974
0.947288
0.948999
0.94908
0.947437
0.949249
0.94094
0.944446
0.916908
0.915598
0.924214
0.923087
0.925213
0.925348
0.923352
0.924683
0.916291
0.91768
0.881736
0.882882
0.891867
0.891562
0.894059
0.894271
0.892
0.892636
0.884017
0.883083
0.837955
0.841623
0.851178
0.85189
0.854739
0.855054
0.85258
0.852387
0.843404
0.840129
0.785484
0.791642
0.801919
0.803771
0.806961
0.807413
0.804817
0.803742
0.794309
0.788802
0.724883
0.733382
0.744463
0.747503
0.751033
0.751659
0.749028
0.7471
0.737203
0.729712
0.65738
0.667961
0.679836
0.684038
0.687904
0.688742
0.686168
0.683495
0.673216
0.664115
0.584828
0.597123
0.609682
0.614949
0.619138
0.620225
0.617809
0.614566
0.604091
0.593838
0.509549
0.52311
0.536155
0.542324
0.546803
0.548172
0.546021
0.54244
0.532032
0.521123
0.434115
0.44844
0.461707
0.468569
0.473291
0.47496
0.473177
0.469516
0.459481
0.448428
0.36109
0.375661
0.388851
0.396169
0.401067
0.403043
0.401714
0.398224
0.388869
0.378164
0.29278
0.307103
0.319911
0.32744
0.332434
0.334701
0.333888
0.330789
0.322383
0.312449
0.231033
0.244671
0.256813
0.264318
0.269316
0.271838
0.271569
0.269027
0.261773
0.252931
0.177109
0.1897
0.200939
0.208206
0.213112
0.215834
0.216098
0.214216
0.208233
0.200683
0.13164
0.142909
0.153063
0.15991
0.164627
0.167476
0.168228
0.167042
0.162359
0.156182
0.0946617
0.104419
0.113368
0.119649
0.124084
0.126975
0.128139
0.127628
0.124195
0.119367
0.0656999
0.0738441
0.081524
0.0871306
0.091202
0.0940457
0.0955276
0.0956225
0.0933291
0.0897469
0.0439013
0.0504206
0.0568168
0.0616785
0.0653188
0.0680277
0.0697223
0.0703297
0.0690262
0.0665332
0.028173
0.0331467
0.0382888
0.0423717
0.0455311
0.0480254
0.0498243
0.0508375
0.0503663
0.0487871
0.0173218
0.020916
0.0248784
0.0281825
0.0308324
0.0330445
0.0348419
0.0361515
0.0363695
0.0355021
0.0101828
0.012627
0.015528
0.0180842
0.0202144
0.0220876
0.0237776
0.0252665
0.0260888
0.0258012
0.00570765
0.00726351
0.00926395
0.0111368
0.0127612
0.0142579
0.0157481
0.017277
0.0186692
0.0188109
0.0030235
0.00394045
0.00521954
0.00649107
0.00763469
0.0087242
0.00991035
0.0112649
0.0132668
0.0143702
1.00033
1.00366
0.999375
1.00016
1.00012
1.00012
1.00015
0.999371
1.00371
1.00026
0.995822
0.99711
0.996836
0.998991
0.999009
0.998999
0.998961
0.996818
0.997219
0.995756
0.995004
0.990734
0.994569
0.99591
0.995733
0.99572
0.995881
0.994597
0.990847
0.994876
0.993557
0.986313
0.99252
0.99206
0.991698
0.991689
0.992045
0.992565
0.986384
0.99344
0.988431
0.980894
0.988549
0.986899
0.986821
0.986824
0.986899
0.98861
0.980961
0.988357
0.979128
0.972463
0.980861
0.978816
0.979387
0.979405
0.978841
0.980953
0.972588
0.979107
0.965125
0.959913
0.968532
0.966513
0.967749
0.967787
0.96658
0.968677
0.960127
0.965263
0.945348
0.94205
0.950716
0.948994
0.950761
0.950835
0.94913
0.950976
0.942413
0.945759
0.918575
0.917505
0.926328
0.925177
0.927377
0.927506
0.925427
0.926788
0.918152
0.919366
0.88377
0.885114
0.894291
0.893969
0.89655
0.896756
0.89439
0.895058
0.886211
0.885131
0.840328
0.844139
0.853864
0.854563
0.857497
0.857809
0.855236
0.855082
0.845895
0.842503
0.788156
0.794401
0.804825
0.806661
0.809932
0.810382
0.80769
0.806665
0.797047
0.791473
0.727796
0.736344
0.74755
0.750567
0.754169
0.754793
0.752072
0.750202
0.740137
0.732642
0.660471
0.671074
0.683055
0.687228
0.691154
0.691991
0.689337
0.686724
0.676303
0.667227
0.588026
0.600322
0.612971
0.618206
0.622442
0.623529
0.621044
0.617861
0.607273
0.597045
0.512774
0.526316
0.53944
0.545577
0.550095
0.551462
0.549253
0.545729
0.535234
0.524342
0.437278
0.451572
0.46491
0.471744
0.476495
0.478163
0.476331
0.472719
0.462618
0.451575
0.364103
0.37864
0.391895
0.39919
0.40411
0.406083
0.404714
0.401266
0.391859
0.381155
0.295566
0.309862
0.322729
0.330241
0.335251
0.337514
0.336669
0.333603
0.325156
0.315214
0.233534
0.247156
0.259354
0.266847
0.271856
0.274375
0.274079
0.271563
0.264276
0.255417
0.179292
0.191881
0.20317
0.210431
0.215344
0.218062
0.218305
0.216441
0.21043
0.202858
0.133492
0.144773
0.154973
0.161819
0.166539
0.169384
0.170118
0.168944
0.164239
0.158037
0.0961902
0.105971
0.114961
0.121246
0.125683
0.12857
0.12972
0.129215
0.125764
0.120912
0.0669238
0.0751034
0.0828203
0.0884361
0.0925082
0.0953485
0.0968188
0.0969175
0.0946095
0.0910062
0.0448485
0.0514137
0.0578463
0.0627218
0.0663637
0.0690697
0.0707554
0.0713651
0.0700512
0.067541
0.0288772
0.0339049
0.0390858
0.043187
0.0463499
0.0488421
0.0506344
0.05165
0.0511732
0.0495813
0.0178206
0.0214724
0.0254775
0.0288041
0.0314597
0.0336704
0.0354636
0.036777
0.0369951
0.0361189
0.0105144
0.0130146
0.0159617
0.0185434
0.0206808
0.0225531
0.0242412
0.0257361
0.0265659
0.0262737
0.00591146
0.00751596
0.00956176
0.0114603
0.0130922
0.0145885
0.0160787
0.0176155
0.0190251
0.0191633
0.00314078
0.00409388
0.00541119
0.00670399
0.00785265
0.00894052
0.0101272
0.0114888
0.0135214
0.0146398
1.00033
1.00366
0.999374
1.00016
1.00012
1.00012
1.00015
0.999372
1.00371
1.00026
0.995821
0.99711
0.996835
0.998989
0.999007
0.998997
0.99896
0.996819
0.997216
0.995754
0.995005
0.99073
0.994566
0.995906
0.995728
0.995715
0.995879
0.994596
0.990842
0.994873
0.99356
0.986305
0.992517
0.992056
0.991692
0.991683
0.992041
0.992562
0.98638
0.993439
0.988438
0.980884
0.988549
0.986897
0.986818
0.986818
0.986896
0.98861
0.980959
0.988352
0.979135
0.972455
0.980863
0.978814
0.979385
0.979399
0.978839
0.980954
0.972585
0.979102
0.965153
0.959892
0.968526
0.966508
0.967743
0.967782
0.966578
0.968677
0.96012
0.965262
0.945395
0.942017
0.950707
0.948983
0.950753
0.950828
0.949125
0.950971
0.942404
0.945761
0.918603
0.917479
0.926323
0.925163
0.927367
0.927497
0.925418
0.926782
0.918148
0.919355
0.883764
0.885101
0.894293
0.893952
0.896539
0.896747
0.89438
0.895053
0.886215
0.885101
0.840297
0.844133
0.853868
0.854544
0.857483
0.857797
0.855225
0.855071
0.845894
0.842471
0.788117
0.794393
0.804824
0.806638
0.809913
0.810366
0.807674
0.806646
0.797036
0.791446
0.727749
0.736331
0.747542
0.75054
0.754145
0.754772
0.752051
0.750175
0.740118
0.73262
0.660418
0.671053
0.683036
0.687195
0.691123
0.691963
0.689307
0.686685
0.676274
0.66721
0.587967
0.600291
0.612942
0.618166
0.622404
0.623493
0.621006
0.617814
0.607236
0.597022
0.512705
0.526274
0.5394
0.545529
0.550049
0.551418
0.549206
0.545676
0.53519
0.524305
0.4372
0.451519
0.464859
0.471687
0.47644
0.478109
0.476276
0.472661
0.462567
0.451524
0.364018
0.378577
0.391833
0.399125
0.404047
0.406021
0.404653
0.401202
0.391801
0.381095
0.295476
0.309789
0.322658
0.330169
0.33518
0.337445
0.336601
0.333532
0.32509
0.315149
0.233441
0.247076
0.259275
0.266769
0.271779
0.274299
0.274006
0.271486
0.264203
0.255348
0.179199
0.191796
0.203087
0.21035
0.215263
0.217983
0.218228
0.21636
0.210352
0.202787
0.133403
0.144687
0.154888
0.161736
0.166457
0.169303
0.170039
0.168861
0.164157
0.157964
0.0961068
0.105889
0.114879
0.121165
0.125602
0.128489
0.129641
0.129132
0.125681
0.120838
0.0668493
0.0750279
0.0827444
0.0883599
0.0924311
0.0952704
0.0967417
0.0968375
0.0945283
0.0909329
0.0447861
0.0513481
0.0577791
0.0626528
0.0662928
0.068997
0.0706824
0.0712895
0.0699738
0.0674698
0.0288289
0.0338513
0.0390293
0.0431275
0.0462876
0.0487769
0.0505677
0.0515804
0.0511017
0.0495141
0.0177872
0.0214323
0.0254329
0.0287556
0.0314075
0.0336145
0.035405
0.0367148
0.0369307
0.0360571
0.0104945
0.0129878
0.0159295
0.0185068
0.0206401
0.0225084
0.024193
0.0256836
0.0265104
0.0262201
0.00590212
0.0075008
0.00954085
0.0114349
0.0130628
0.0145549
0.016041
0.0175728
0.0189774
0.0191165
0.00313655
0.00408645
0.00539966
0.00668915
0.00783497
0.00891986
0.0101031
0.0114603
0.0134867
0.0146049
1.00031
1.0037
0.999411
1.00019
1.00016
1.00015
1.00018
0.999407
1.00375
1.00024
0.995777
0.997131
0.996803
0.99894
0.998969
0.998961
0.998911
0.996784
0.997232
0.9957
0.995059
0.990896
0.994699
0.996041
0.995885
0.995874
0.996014
0.994725
0.990998
0.994934
0.993734
0.986559
0.992773
0.992364
0.992037
0.99203
0.992354
0.992824
0.986639
0.993602
0.98846
0.980859
0.988502
0.986922
0.98688
0.986881
0.986931
0.988573
0.980973
0.988333
0.978727
0.971911
0.980217
0.978219
0.978803
0.978817
0.978254
0.980306
0.972064
0.978698
0.964249
0.958822
0.967288
0.965292
0.966508
0.966545
0.965368
0.967428
0.959043
0.964407
0.94404
0.940505
0.948998
0.947279
0.949002
0.949075
0.947425
0.949249
0.940877
0.944458
0.916857
0.915591
0.924232
0.923074
0.925214
0.925341
0.923332
0.924681
0.916239
0.917656
0.881672
0.882874
0.891873
0.891538
0.894052
0.894257
0.89197
0.892631
0.883965
0.88304
0.837882
0.84161
0.851168
0.851856
0.85472
0.85503
0.852543
0.85238
0.843348
0.840066
0.785406
0.791619
0.80189
0.803724
0.806928
0.807377
0.804768
0.803727
0.794243
0.78872
0.724792
0.733343
0.744415
0.747443
0.750983
0.751608
0.748964
0.747076
0.737129
0.729608
0.657271
0.667899
0.679765
0.683961
0.687833
0.688673
0.686087
0.683457
0.673134
0.663983
0.584698
0.597034
0.609584
0.61485
0.619044
0.620135
0.617708
0.614508
0.603997
0.593679
0.509397
0.522988
0.536026
0.5422
0.546686
0.548058
0.545898
0.542356
0.531922
0.520944
0.433939
0.448285
0.461548
0.468419
0.473148
0.474824
0.473033
0.469404
0.459351
0.448233
0.36089
0.375475
0.388665
0.395994
0.4009
0.402883
0.401549
0.398085
0.388718
0.377955
0.292558
0.30689
0.3197
0.327243
0.332245
0.33452
0.333705
0.330624
0.322212
0.312232
0.230794
0.244435
0.256583
0.264102
0.269109
0.27164
0.271371
0.268842
0.261585
0.252709
0.176863
0.18945
0.200697
0.207979
0.212892
0.215623
0.215889
0.214016
0.208031
0.200457
0.131397
0.142656
0.152818
0.159679
0.164402
0.167257
0.168012
0.166832
0.162149
0.155956
0.0944319
0.104173
0.113128
0.119421
0.123861
0.126756
0.127922
0.127413
0.123981
0.119144
0.0654926
0.0736176
0.0812988
0.0869132
0.090987
0.0938319
0.0953148
0.095411
0.0931174
0.0895308
0.0437241
0.0502217
0.0566142
0.0614793
0.0651191
0.0678263
0.0695196
0.0701262
0.068822
0.0663269
0.0280305
0.0329816
0.0381152
0.0421967
0.0453529
0.0478426
0.0496371
0.0506472
0.0501747
0.0485943
0.0172164
0.0207881
0.0247374
0.0280358
0.0306802
0.0328853
0.0346752
0.0359784
0.0361937
0.035325
0.0101133
0.0125366
0.0154219
0.0179692
0.0200924
0.0219573
0.0236378
0.0251167
0.025934
0.0256465
0.0056679
0.00720576
0.00918968
0.0110522
0.0126691
0.0141572
0.0156363
0.0171512
0.0185327
0.0186724
0.00300184
0.00390705
0.00517329
0.00643658
0.00757492
0.00865851
0.00983545
0.0111766
0.0131623
0.0142653
0.999578
1.00279
0.998685
0.999411
0.999372
0.999371
0.999405
0.998682
1.00284
0.999512
0.994302
0.995238
0.994874
0.996796
0.996814
0.996807
0.996771
0.994859
0.995338
0.994231
0.994137
0.989958
0.993625
0.994719
0.994574
0.994565
0.994699
0.993656
0.990074
0.994024
0.993885
0.987046
0.993293
0.992795
0.992521
0.992516
0.992787
0.993347
0.987138
0.993779
0.989254
0.982222
0.990023
0.988515
0.988543
0.988543
0.988524
0.990088
0.982302
0.989212
0.979717
0.973547
0.982011
0.980213
0.980855
0.980869
0.980253
0.98212
0.97366
0.979764
0.965196
0.960358
0.968971
0.967279
0.968537
0.96858
0.967359
0.969154
0.960578
0.965359
0.94472
0.941689
0.950337
0.949005
0.950764
0.950845
0.949152
0.950643
0.942076
0.945134
0.917039
0.916178
0.925
0.924278
0.926456
0.926593
0.924539
0.925505
0.916838
0.917865
0.881158
0.882658
0.891865
0.891991
0.894547
0.894757
0.892428
0.892683
0.883757
0.882572
0.836518
0.840455
0.850243
0.85139
0.854305
0.854618
0.852088
0.851515
0.842203
0.838777
0.78312
0.789452
0.799978
0.80225
0.805514
0.805966
0.803315
0.801879
0.792112
0.78654
0.721616
0.730164
0.741515
0.744951
0.74856
0.749189
0.746506
0.744248
0.734039
0.726539
0.653296
0.6638
0.67595
0.680516
0.684466
0.685312
0.682696
0.679726
0.669182
0.660101
0.580074
0.592175
0.604995
0.610591
0.61487
0.61597
0.613526
0.610028
0.599344
0.589125
0.504318
0.517589
0.530865
0.537323
0.5419
0.543286
0.541122
0.537334
0.526771
0.515924
0.428629
0.442594
0.45605
0.46316
0.467983
0.469676
0.467893
0.464071
0.453937
0.442978
0.355579
0.369739
0.383072
0.390597
0.395596
0.397601
0.396287
0.39268
0.383279
0.372694
0.287444
0.301341
0.314241
0.321939
0.32703
0.329331
0.328546
0.325371
0.316964
0.307168
0.226039
0.239261
0.251449
0.259088
0.264177
0.266737
0.266504
0.263922
0.256703
0.248008
0.172582
0.184788
0.196029
0.203401
0.208388
0.21115
0.211455
0.209562
0.203637
0.196236
0.127658
0.138582
0.148703
0.155629
0.160416
0.163304
0.164098
0.162921
0.158311
0.152277
0.0912583
0.100713
0.109601
0.115938
0.120433
0.123359
0.124564
0.124073
0.120718
0.11602
0.0628746
0.0707541
0.0783526
0.0839929
0.0881115
0.0909852
0.0925034
0.0926234
0.0904045
0.0869366
0.04163
0.0479138
0.0542111
0.059083
0.062757
0.06549
0.0672139
0.067845
0.0666076
0.0642103
0.0264125
0.0311718
0.0361991
0.040267
0.0434461
0.045958
0.0477776
0.0488083
0.0483903
0.0468887
0.0160179
0.0194118
0.023244
0.026508
0.0291637
0.0313876
0.0331965
0.0345121
0.0347658
0.0339579
0.00927926
0.0115346
0.0142912
0.0167847
0.0189077
0.0207873
0.0224806
0.0239609
0.024794
0.0245533
0.00512776
0.00651539
0.00836667
0.0101636
0.0117715
0.01327
0.0147549
0.0162582
0.017622
0.0177876
0.00267903
0.00346362
0.00460926
0.00580819
0.00693649
0.00803095
0.00921057
0.0105343
0.0124531
0.0135488
1.00335
1.00655
1.00284
1.00375
1.00371
1.00371
1.00374
1.00284
1.00661
1.0033
0.994995
0.995734
0.995316
0.997213
0.997184
0.997178
0.997197
0.995316
0.995863
0.994962
0.990786
0.986664
0.990016
0.990958
0.990786
0.990779
0.990949
0.990047
0.9868
0.990729
0.988308
0.981177
0.987066
0.986581
0.986303
0.986301
0.986576
0.987106
0.981262
0.988249
0.982629
0.974817
0.982219
0.980883
0.980852
0.980851
0.98089
0.982275
0.974884
0.982588
0.972576
0.965553
0.973531
0.971929
0.972418
0.972428
0.971978
0.973632
0.965636
0.972601
0.95782
0.952289
0.960347
0.958842
0.959887
0.959928
0.95895
0.960528
0.95246
0.957979
0.937192
0.933631
0.941705
0.940562
0.94209
0.94217
0.940737
0.942016
0.93398
0.93759
0.909272
0.90798
0.916243
0.915728
0.917685
0.917819
0.916018
0.916767
0.908631
0.910062
0.872989
0.874112
0.882803
0.883153
0.88551
0.885719
0.883627
0.883647
0.87522
0.874379
0.827804
0.831386
0.840705
0.842097
0.844843
0.845158
0.842846
0.842018
0.833152
0.830064
0.773799
0.77974
0.789839
0.79238
0.795513
0.795973
0.793513
0.791812
0.782433
0.77723
0.71169
0.719778
0.730742
0.734462
0.737976
0.738622
0.736105
0.73359
0.723712
0.716639
0.642842
0.652819
0.664619
0.669467
0.673352
0.674226
0.671752
0.668546
0.658296
0.649717
0.569274
0.580784
0.593273
0.599133
0.603375
0.604513
0.602193
0.598487
0.588069
0.578469
0.493424
0.506045
0.518993
0.525689
0.530252
0.531686
0.529638
0.525678
0.51536
0.50526
0.417923
0.431198
0.444318
0.451632
0.456459
0.458211
0.456541
0.452592
0.442695
0.432576
0.345344
0.358798
0.371781
0.379474
0.384492
0.386563
0.385364
0.381677
0.372517
0.362818
0.27794
0.291126
0.303667
0.311498
0.316621
0.318993
0.318325
0.315115
0.306959
0.298051
0.217464
0.229988
0.241816
0.249556
0.254686
0.257322
0.257208
0.25463
0.247671
0.239825
0.165056
0.176598
0.187491
0.194937
0.199972
0.202809
0.203235
0.201376
0.195714
0.18909
0.121223
0.13154
0.141336
0.148312
0.153149
0.15611
0.157022
0.155904
0.151548
0.146197
0.0859023
0.0948108
0.103404
0.109769
0.114314
0.117308
0.118624
0.118207
0.11509
0.110971
0.0585419
0.0659302
0.0732631
0.0789112
0.0830751
0.0860098
0.0876292
0.0878317
0.0858271
0.0828332
0.0382326
0.0440707
0.0501223
0.0549798
0.0586917
0.0614784
0.0632905
0.0640049
0.0629549
0.0609341
0.0238408
0.0281898
0.0329809
0.0370078
0.0402136
0.0427716
0.0446652
0.0457735
0.0455154
0.0443058
0.0141585
0.0171657
0.0207559
0.0239489
0.0266175
0.0288798
0.0307484
0.0321306
0.0325169
0.0319347
0.00802442
0.00992819
0.0124195
0.0148015
0.0169145
0.0188199
0.0205564
0.0220862
0.023022
0.0229628
0.00432445
0.00542247
0.0070067
0.00865604
0.010224
0.0117298
0.0132373
0.0147677
0.0161921
0.0165156
0.0021997
0.00276519
0.00367063
0.00470909
0.00577041
0.0068491
0.00802679
0.00935058
0.0112489
0.0124684
0.999292
1.00328
0.999511
1.00024
1.00026
1.00026
1.00024
0.999511
1.00331
0.999233
0.993517
0.994907
0.994214
0.995682
0.995723
0.995719
0.995671
0.994215
0.994965
0.993446
0.995596
0.990669
0.99398
0.994905
0.994841
0.994836
0.9949
0.994012
0.990742
0.995456
0.995944
0.988204
0.993726
0.993561
0.993401
0.9934
0.993575
0.993786
0.988277
0.995812
0.990268
0.982551
0.989129
0.988285
0.988318
0.988337
0.98832
0.989224
0.982633
0.990206
0.979167
0.972529
0.979658
0.97863
0.979086
0.979119
0.978664
0.97978
0.972654
0.979225
0.962915
0.957801
0.965209
0.96427
0.965197
0.965238
0.964339
0.965385
0.958041
0.963143
0.940484
0.937198
0.944812
0.944186
0.945552
0.945627
0.944353
0.945111
0.93765
0.940972
0.910571
0.90931
0.917226
0.917154
0.918939
0.919069
0.917474
0.917741
0.910103
0.911464
0.872242
0.873069
0.881458
0.882163
0.884366
0.884588
0.882703
0.882326
0.87438
0.873747
0.825058
0.82795
0.836998
0.838638
0.841262
0.841603
0.839486
0.838374
0.829992
0.82746
0.769164
0.774052
0.78386
0.786542
0.789592
0.790078
0.787808
0.785933
0.777041
0.772807
0.705368
0.712099
0.72268
0.726441
0.729924
0.730599
0.728254
0.725666
0.716292
0.710612
0.635138
0.643468
0.654781
0.659579
0.663487
0.664395
0.662074
0.65892
0.649186
0.642355
0.560552
0.570181
0.582082
0.587808
0.592112
0.593298
0.591114
0.587587
0.577725
0.570092
0.484095
0.494671
0.50694
0.513432
0.518083
0.519583
0.517656
0.513975
0.504281
0.496246
0.408409
0.419554
0.43192
0.438981
0.443912
0.445748
0.444193
0.440606
0.431383
0.423345
0.336033
0.347373
0.35954
0.366953
0.372082
0.374259
0.373173
0.369905
0.361444
0.353767
0.269154
0.280342
0.29203
0.299574
0.304804
0.307302
0.306751
0.303988
0.296533
0.289514
0.209442
0.220163
0.231131
0.238596
0.243823
0.246598
0.246609
0.244481
0.2382
0.232052
0.157948
0.167926
0.177992
0.185185
0.190304
0.193288
0.193846
0.192418
0.187393
0.182238
0.115098
0.124096
0.133137
0.139892
0.1448
0.147907
0.148956
0.148232
0.144456
0.140331
0.0807616
0.0885814
0.0965165
0.102696
0.107293
0.110427
0.111883
0.111814
0.10921
0.106079
0.0543549
0.0608436
0.0676199
0.0731097
0.0773093
0.0803687
0.0821246
0.0826267
0.0810663
0.0788438
0.0349613
0.0400292
0.0456072
0.0503191
0.0540478
0.0569367
0.0588771
0.0598438
0.0591719
0.0577384
0.0214168
0.0250892
0.029455
0.0333293
0.0365296
0.0391626
0.0411681
0.0424835
0.0425442
0.0417757
0.0124836
0.0149065
0.0180837
0.0210926
0.0237257
0.0260329
0.0279901
0.0295363
0.0301916
0.0299448
0.0069875
0.00842668
0.0104935
0.0126398
0.0146732
0.0165848
0.0183749
0.0200205
0.0211774
0.0213868
0.00371517
0.00447652
0.00569878
0.00708683
0.00852475
0.00999013
0.0115099
0.0131051
0.0146996
0.0152687
0.00184385
0.00219634
0.0028457
0.00365657
0.00455538
0.0055336
0.00665586
0.00796715
0.00994365
0.0114441
0.00123918
0.0014774
0.00192473
0.0025025
0.00315291
0.00387913
0.00475638
0.00579634
0.00755336
0.00923755
0.000960307
0.00114224
0.00149245
0.00195338
0.0024819
0.0030803
0.00381894
0.00471118
0.00622974
0.00810161
0.000740567
0.000881535
0.00115627
0.00152072
0.00194273
0.00242411
0.00302722
0.00377591
0.00501973
0.00690178
0.000569227
0.000679579
0.000895986
0.00118272
0.00151566
0.00189587
0.0023744
0.00298182
0.0039568
0.00562616
0.000436777
0.000523792
0.000694975
0.000920126
0.00118102
0.00147762
0.00184925
0.00232631
0.00305981
0.00441493
0.000335107
0.00040401
0.000539867
0.000716362
0.000919474
0.00114866
0.00143283
0.00179998
0.00233598
0.00336839
0.00025746
0.000312132
0.000420074
0.000558185
0.000715484
0.000891009
0.00110524
0.00138324
0.0017702
0.00252109
0.000198326
0.000241726
0.000327379
0.000435155
0.000556305
0.000689607
0.000849388
0.00105638
0.00133404
0.00186286
0.000153311
0.000187752
0.000255454
0.000339134
0.000431547
0.000531442
0.000648679
0.000800128
0.000997555
0.0013633
0.000118996
0.000146273
0.00019937
0.000263624
0.000332674
0.000405674
0.000489737
0.000598231
0.000736642
0.00098543
9.27209e-05
0.000114165
0.000155224
0.000203492
0.000253624
0.000305463
0.000364327
0.000440186
0.000535666
0.000701743
7.24394e-05
8.90355e-05
0.000120065
0.000155281
0.000190621
0.000226418
0.000266682
0.000318433
0.000383147
0.000492035
5.6621e-05
6.9158e-05
9.19641e-05
0.00011685
0.000141031
0.000165085
0.000191975
0.000226477
0.000269563
0.000339834
4.41627e-05
5.33677e-05
6.96177e-05
8.66291e-05
0.000102665
0.000118386
0.000135943
0.000158476
0.00018668
0.000231452
3.43015e-05
4.08453e-05
5.20316e-05
6.32473e-05
7.35263e-05
8.35211e-05