/*--------------------------------*- C++ -*----------------------------------*\
| =========                 |                                                 |
| \\      /  F ield         | OpenFOAM: The Open Source CFD Toolbox           |
|  \\    /   O peration     | Version:  4.1                                   |
|   \\  /    A nd           | Web:      www.OpenFOAM.org                      |
|    \\/     M anipulation  |                                                 |
\*---------------------------------------------------------------------------*/
FoamFile
{
    version     2.0;
    format      ascii;
    class       volScalarField;
    location    "95";
    object      T;
}
// * * * * * * * * * * * * * * * * * * * * * * * * * * * * * * * * * * * * * //

dimensions      [0 0 0 1 0 0 0];

internalField   nonuniform List<scalar> 
12000
(
0.999583
1.00358
0.999807
1.00054
1.00055
1.00055
1.00053
0.999806
1.00359
0.999558
0.994979
0.996274
0.99554
0.996991
0.997021
0.997014
0.996979
0.995539
0.996307
0.994933
0.999372
0.994202
0.997396
0.998257
0.998159
0.998157
0.99825
0.997414
0.994232
0.999302
1.00385
0.995572
1.00083
1.00049
1.00029
1.00027
1.00049
1.00085
0.99556
1.00374
1.00496
0.996286
1.00237
1.00118
1.00117
1.00107
1.00118
1.00239
0.996229
1.00482
1.00441
0.996219
1.0025
1.00085
1.00118
1.00107
1.00085
1.00249
0.996173
1.00423
1.00371
0.996266
1.00232
1.00037
1.00095
1.00093
1.00035
1.00228
0.996255
1.00349
1.00314
0.996556
1.00214
0.999989
1.00075
1.00079
0.999954
1.00209
0.996577
1.00289
1.00259
0.996884
1.00192
0.999662
1.00054
1.00062
0.999612
1.00184
0.996919
1.00231
1.00208
0.997164
1.00163
0.999363
1.00033
1.00042
0.999312
1.00155
0.997198
1.00175
1.00166
0.997373
1.00134
0.999144
1.00014
1.00023
0.999067
1.00125
0.997411
1.00127
1.00135
0.997551
1.0011
0.999011
0.999983
1.00009
0.998896
1.00101
0.997585
1.0009
1.00117
0.997754
1.0009
0.998942
0.999873
0.999988
0.998808
1.00081
0.997746
1.00064
1.00109
0.997946
1.00075
0.998924
0.999801
0.999921
0.998776
1.00065
0.997891
1.00043
1.00109
0.998131
1.00065
0.998946
0.999761
0.999884
0.998784
1.00053
0.998022
1.00025
1.00117
0.99832
1.00058
0.998998
0.999745
0.999871
0.998822
1.00043
0.99814
1.00011
1.00134
0.998518
1.00052
0.999075
0.99975
0.99988
0.998879
1.00035
0.99824
0.999982
1.0016
0.998742
1.00048
0.999169
0.999772
0.999907
0.998954
1.0003
0.99832
0.999875
1.00191
0.999024
1.00043
0.999274
0.999814
0.999956
0.999049
1.00026
0.998379
0.999775
1.00225
0.99941
1.00036
0.999388
0.999877
1.00004
0.999164
1.00026
0.998417
0.999671
1.00253
0.9999
1.00024
0.999489
0.999956
1.00016
0.999305
1.00029
0.998425
0.999538
1.00254
1.00044
1.00004
0.999537
1.00004
1.00031
0.999477
1.00035
0.998386
0.999329
1.00194
1.00088
0.999682
0.999432
1.00006
1.00046
0.999677
1.00041
0.998265
0.998957
1.00014
1.00075
0.998997
0.998982
0.999858
1.0005
0.999862
1.00046
0.998001
0.998261
0.996055
0.998936
0.997441
0.997726
0.999039
1.00018
0.999921
1.00049
0.997519
0.996857
0.987406
0.993193
0.993758
0.994736
0.996787
0.998894
0.999491
1.00039
0.996802
0.994229
0.968473
0.979278
0.985171
0.98809
0.991621
0.995544
0.997969
1.00014
0.996428
0.988774
0.94403
0.960874
0.970702
0.975612
0.981184
0.987699
0.993182
0.998249
0.998396
0.981911
0.911981
0.932237
0.945477
0.953371
0.962561
0.972966
0.983889
0.993703
1.01023
0.973894
0.857386
0.87456
0.895558
0.912013
0.92647
0.939449
0.955953
0.967012
1.03431
1.02637
1.00359
1.00675
1.00301
1.00391
1.00387
1.00387
1.00391
1.00301
1.00679
1.00354
0.996298
0.996863
0.996392
0.998265
0.998221
0.998219
0.99825
0.996387
0.996959
0.99624
0.994235
0.98974
0.992956
0.993843
0.993639
0.993629
0.993825
0.99297
0.989826
0.994131
0.995617
0.987826
0.993448
0.992816
0.99245
0.99245
0.992795
0.993474
0.987909
0.995468
0.996341
0.987434
0.994339
0.992675
0.992441
0.992501
0.992655
0.994364
0.987536
0.996152
0.996289
0.987519
0.994654
0.992459
0.992628
0.99271
0.992432
0.994668
0.987594
0.9961
0.996358
0.988188
0.994892
0.992426
0.993038
0.993084
0.992389
0.994891
0.988212
0.996185
0.996679
0.989334
0.995353
0.992736
0.993675
0.993693
0.992687
0.995322
0.989299
0.996501
0.997048
0.990589
0.995896
0.993258
0.994389
0.994402
0.993189
0.995847
0.990509
0.996832
0.997382
0.991706
0.996379
0.99382
0.995045
0.995067
0.993727
0.996308
0.991606
0.997084
0.997659
0.992694
0.996788
0.994352
0.995607
0.995644
0.994246
0.996688
0.992571
0.997263
0.99792
0.993586
0.997137
0.99486
0.996091
0.996143
0.994747
0.997011
0.993425
0.997413
0.998232
0.99434
0.997447
0.99535
0.996512
0.996581
0.995217
0.997297
0.994152
0.997556
0.998558
0.994991
0.997733
0.995819
0.996883
0.99697
0.995658
0.997555
0.994768
0.997682
0.9989
0.99557
0.99798
0.996257
0.997209
0.997315
0.996067
0.997782
0.99528
0.997811
0.999267
0.996089
0.998201
0.996663
0.997499
0.997622
0.996445
0.997983
0.995692
0.997947
0.99965
0.996577
0.998401
0.997037
0.997758
0.997898
0.996793
0.998169
0.996032
0.99805
1.00003
0.99705
0.99858
0.997375
0.997989
0.998148
0.997111
0.998342
0.996308
0.998102
1.00041
0.997516
0.99872
0.997674
0.998193
0.998372
0.997394
0.998498
0.996516
0.998095
1.00074
0.997965
0.998794
0.997917
0.998367
0.998569
0.997644
0.998622
0.996648
0.998014
1.00094
0.998408
0.998779
0.998084
0.998499
0.998732
0.997854
0.9987
0.996681
0.997827
1.00083
0.998816
0.998649
0.998136
0.998564
0.998844
0.998011
0.998717
0.996575
0.997478
1.00019
0.999061
0.998328
0.998003
0.998506
0.99887
0.998093
0.998646
0.996275
0.996856
0.998616
0.998856
0.997666
0.997517
0.998185
0.998716
0.99805
0.998446
0.995689
0.995778
0.995226
0.997473
0.996258
0.996325
0.997308
0.998187
0.997787
0.998079
0.9947
0.993832
0.988147
0.993261
0.99313
0.993663
0.995225
0.996811
0.997025
0.99747
0.993257
0.990486
0.973903
0.982982
0.986126
0.988051
0.990806
0.993763
0.995302
0.996625
0.991776
0.984061
0.951015
0.96491
0.972828
0.977215
0.981932
0.987034
0.99094
0.994558
0.992318
0.975847
0.915493
0.934683
0.948726
0.957719
0.965966
0.974225
0.982402
0.989767
1.00111
0.964733
0.865597
0.885133
0.904591
0.92106
0.935039
0.946684
0.960174
0.96856
1.02492
1.00628
0.999819
1.00301
0.998896
0.999618
0.999577
0.999576
0.999614
0.998897
1.00306
0.999753
0.99557
0.996402
0.996001
0.997902
0.997907
0.9979
0.997879
0.995984
0.996495
0.9955
0.997443
0.992971
0.996511
0.997542
0.997367
0.997353
0.997516
0.99653
0.993067
0.997308
1.00089
0.993464
0.999435
0.998787
0.998441
0.998433
0.998761
0.999463
0.993525
1.00074
1.00244
0.994355
1.00165
0.999837
0.999728
0.999735
0.999809
1.00167
0.99438
1.00229
1.00257
0.994671
1.00229
0.999948
1.00038
1.00037
0.999918
1.0023
0.99466
1.00242
1.0024
0.994906
1.00219
0.999594
1.00053
1.00051
0.999563
1.00219
0.994867
1.00223
1.00224
0.995356
1.00201
0.999272
1.00055
1.00052
0.999244
1.00201
0.995289
1.00204
1.00203
0.995891
1.00186
0.999089
1.00056
1.00054
0.999053
1.00184
0.995789
1.00183
1.00177
0.996365
1.00168
0.998968
1.00052
1.00052
0.998915
1.00164
0.996243
1.00153
1.00152
0.996758
1.00145
0.998866
1.00043
1.00046
0.9988
1.00139
0.996626
1.0012
1.00133
0.99709
1.00121
0.998798
1.00032
1.00036
0.998716
1.00114
0.996951
1.00092
1.00122
0.997368
1.001
0.998771
1.0002
1.00026
0.99867
1.00091
0.997232
1.00068
1.00116
0.997618
1.00082
0.99878
1.00009
1.00017
0.998658
1.0007
0.99747
1.00049
1.00117
0.99784
1.00065
0.998813
0.999988
1.0001
0.998669
1.00052
0.997663
1.00032
1.00125
0.998037
1.0005
0.998861
0.999902
1.00003
0.998698
1.00037
0.997818
1.00017
1.00138
0.998228
1.00037
0.99892
0.999832
0.999981
0.99874
1.00025
0.997941
1.00002
1.00156
0.998432
1.00025
0.998985
0.999776
0.999945
0.998789
1.00015
0.998039
0.999869
1.00176
0.998655
1.00014
0.999046
0.999733
0.999921
0.998842
1.00008
0.998104
0.999694
1.00193
0.998897
1.00001
0.999086
0.999694
0.999906
0.998894
1.00001
0.998115
0.99949
1.00201
0.999156
0.999821
0.999083
0.999646
0.999891
0.998937
0.999934
0.998053
0.99922
1.00183
0.999399
0.999542
0.998995
0.999564
0.999861
0.998959
0.999839
0.997884
0.998822
1.00116
0.999498
0.999095
0.998749
0.999394
0.999787
0.998944
0.999697
0.997554
0.998191
0.999512
0.999147
0.998323
0.998192
0.999015
0.999591
0.998854
0.999475
0.996979
0.997147
0.99611
0.997694
0.99685
0.997021
0.998185
0.999116
0.998624
0.999158
0.996052
0.99529
0.989609
0.993853
0.993856
0.994622
0.996398
0.998
0.998054
0.998725
0.994741
0.992107
0.977881
0.985601
0.987881
0.989924
0.992823
0.995652
0.996858
0.998322
0.993553
0.985983
0.959078
0.970706
0.976796
0.981171
0.985904
0.990626
0.99385
0.997366
0.994763
0.978157
0.930807
0.946182
0.957604
0.966205
0.97402
0.981422
0.988343
0.995146
1.00541
0.967927
0.88959
0.907355
0.924935
0.939523
0.951453
0.960995
0.972164
0.978775
1.03348
1.00995
1.00055
1.00392
0.999619
1.00039
1.00036
1.00036
1.00039
0.999617
1.00397
1.00048
0.997023
0.998278
0.997906
1.00002
1.00004
1.00003
0.999995
0.997886
0.998374
0.996951
0.998313
0.993861
0.997549
0.998832
0.998652
0.998637
0.998803
0.997569
0.993956
0.998164
1.00058
0.992831
0.99879
0.998236
0.997847
0.997835
0.998211
0.998818
0.99288
1.00041
1.00126
0.992704
0.999842
0.997964
0.997795
0.997792
0.99794
0.999865
0.992719
1.00109
1.00093
0.992491
0.999946
0.997422
0.997786
0.997792
0.997396
0.99996
0.99251
1.00072
1.00047
0.992435
0.999585
0.996721
0.997589
0.997602
0.996691
0.99958
0.992455
1.00023
1.0001
0.992728
0.999262
0.996193
0.997394
0.997415
0.996157
0.999234
0.992718
0.999864
0.99978
0.993226
0.999074
0.995934
0.997323
0.997358
0.995888
0.999031
0.993192
0.999526
0.999513
0.993763
0.998947
0.995863
0.997339
0.997392
0.995799
0.998886
0.99372
0.999197
0.999327
0.994278
0.998843
0.995901
0.997388
0.997459
0.995812
0.998765
0.994232
0.998924
0.999234
0.994774
0.998773
0.996022
0.997458
0.997547
0.995908
0.998683
0.994723
0.998719
0.999236
0.99525
0.998743
0.99621
0.997553
0.997663
0.996072
0.998645
0.99518
0.998586
0.999316
0.995703
0.998748
0.996447
0.997673
0.997805
0.996284
0.99864
0.99559
0.998522
0.999465
0.996129
0.998775
0.996712
0.997809
0.99796
0.996524
0.998656
0.995951
0.998506
0.999668
0.996532
0.99882
0.996991
0.997951
0.998122
0.996775
0.998693
0.996272
0.998503
0.999919
0.996921
0.998876
0.997271
0.998098
0.998286
0.997027
0.998746
0.996556
0.998496
1.00021
0.997299
0.998929
0.997542
0.998245
0.998449
0.997273
0.998807
0.996794
0.998474
1.00051
0.997674
0.998966
0.997793
0.998385
0.998605
0.997506
0.99887
0.996977
0.998424
1.00081
0.998057
0.99897
0.998006
0.998513
0.998752
0.99772
0.998926
0.997092
0.998325
1.00101
0.998446
0.998916
0.998159
0.998617
0.998883
0.997908
0.998965
0.997119
0.998142
1.00099
0.998813
0.998773
0.99822
0.99868
0.998988
0.998064
0.99897
0.997026
0.997823
1.00054
0.999059
0.998481
0.998127
0.998664
0.99905
0.99818
0.998927
0.996768
0.997268
0.999231
0.998926
0.997916
0.997763
0.99848
0.999021
0.998243
0.998823
0.996275
0.996316
0.996396
0.997849
0.996771
0.996899
0.997956
0.998803
0.998235
0.99869
0.99548
0.994605
0.990893
0.994771
0.994396
0.99508
0.996731
0.998158
0.998051
0.998586
0.994423
0.991676
0.980983
0.98803
0.989626
0.99151
0.99421
0.996687
0.997558
0.998793
0.993746
0.986066
0.964625
0.975349
0.980504
0.984665
0.989044
0.993122
0.995705
0.998833
0.995832
0.978965
0.939197
0.953656
0.964173
0.972386
0.979509
0.985829
0.991701
0.997929
1.00788
0.970219
0.901098
0.918407
0.935416
0.948802
0.958925
0.966514
0.976161
0.981867
1.0369
1.01269
1.00057
1.00387
0.999579
1.00036
1.00032
1.00032
1.00035
0.999575
1.00393
1.0005
0.997055
0.998238
0.997916
1.00005
1.00006
1.00005
1.00002
0.997895
0.998342
0.996983
0.998222
0.993664
0.997382
0.998663
0.998457
0.998441
0.998629
0.997401
0.993764
0.998076
1.00035
0.992506
0.99847
0.997865
0.997436
0.997422
0.997836
0.998493
0.992547
1.00019
1.00116
0.992564
0.999768
0.997822
0.997618
0.997612
0.997794
0.999784
0.992567
1.001
1.00116
0.992774
1.0004
0.997822
0.998182
0.998182
0.997792
1.0004
0.99277
1.00096
1.00099
0.993158
1.00054
0.997635
0.998539
0.998544
0.997599
1.00051
0.993131
1.00079
1.00084
0.993764
1.00054
0.997455
0.998724
0.998738
0.997409
1.0005
0.993697
1.00065
1.0007
0.99444
1.00054
0.997399
0.998881
0.99891
0.997341
1.00049
0.994359
1.00047
1.00055
0.995066
1.0005
0.997432
0.999018
0.999066
0.997354
1.00044
0.994984
1.00026
1.00043
0.995602
1.00041
0.997495
0.999103
0.999172
0.997394
1.00035
0.995532
1.00004
1.00035
0.996067
1.00029
0.997578
0.999141
0.999233
0.997454
1.00024
0.995997
0.999853
1.00033
0.996479
1.00019
0.99769
0.999162
0.999274
0.997542
1.00013
0.996384
0.999723
1.00035
0.996848
1.0001
0.997828
0.999179
0.999316
0.997658
1.00003
0.996715
0.999623
1.00043
0.997178
1.00002
0.997982
0.9992
0.99936
0.99779
0.999948
0.996997
0.999539
1.00057
0.997476
0.999946
0.998142
0.999221
0.999402
0.997928
0.999876
0.997237
0.99946
1.00075
0.997754
0.999882
0.998302
0.999244
0.999445
0.998067
0.999817
0.997437
0.999378
1.00096
0.998023
0.999819
0.998454
0.999267
0.999485
0.998202
0.99977
0.997593
0.999283
1.0012
0.998295
0.999748
0.99859
0.999286
0.999524
0.998328
0.999731
0.9977
0.999163
1.00142
0.998584
0.999654
0.9987
0.9993
0.999559
0.998442
0.999692
0.997746
0.998998
1.00157
0.998895
0.999517
0.998764
0.999301
0.999587
0.998538
0.999643
0.997714
0.998759
1.00153
0.999211
0.999311
0.998755
0.999276
0.999603
0.998612
0.999572
0.997571
0.998391
1.00112
0.999445
0.998976
0.998618
0.999192
0.999592
0.998662
0.999466
0.997273
0.997801
0.999943
0.99936
0.9984
0.998245
0.998976
0.999519
0.998681
0.999321
0.996758
0.996831
0.997366
0.998441
0.997303
0.997428
0.998479
0.999306
0.998666
0.999176
0.995967
0.995129
0.992307
0.995706
0.995092
0.995751
0.997374
0.998744
0.998532
0.999106
0.994954
0.992242
0.983056
0.989566
0.99068
0.992464
0.995095
0.997451
0.998156
0.999392
0.994358
0.986684
0.967291
0.977589
0.982112
0.986057
0.990289
0.994154
0.996485
0.999541
0.99654
0.979595
0.942117
0.956447
0.966413
0.974279
0.981128
0.987137
0.992682
0.998724
1.00866
0.970586
0.904542
0.92183
0.938553
0.951366
0.960936
0.968056
0.977342
0.982675
1.03782
1.01288
1.00057
1.00387
0.999579
1.00036
1.00032
1.00032
1.00035
0.999576
1.00393
1.0005
0.997054
0.998237
0.997915
1.00005
1.00006
1.00004
1.00002
0.997895
0.998339
0.99698
0.998223
0.993661
0.997379
0.998659
0.998451
0.998437
0.998627
0.9974
0.99376
0.998073
1.00035
0.992499
0.998467
0.997861
0.99743
0.997417
0.997832
0.998491
0.992543
1.00019
1.00117
0.992555
0.999769
0.99782
0.997616
0.997606
0.997791
0.999784
0.992566
1.001
1.00117
0.992766
1.0004
0.997821
0.99818
0.998176
0.99779
1.0004
0.992768
1.00096
1.00103
0.993138
1.00053
0.997631
0.998535
0.99854
0.997598
1.00051
0.993126
1.00079
1.00089
0.99373
1.00054
0.997446
0.998718
0.998733
0.997405
1.0005
0.993691
1.00066
1.00074
0.994414
1.00054
0.997388
0.998874
0.998905
0.997335
1.00049
0.994359
1.00047
1.00055
0.995055
1.00051
0.997419
0.999013
0.999062
0.997349
1.00044
0.994995
1.00023
1.00041
0.995601
1.00042
0.997482
0.999097
0.999168
0.99739
1.00035
0.995543
1.00002
1.00033
0.996066
1.00031
0.997565
0.999133
0.999228
0.997449
1.00023
0.996003
0.999841
1.0003
0.996477
1.0002
0.997676
0.999151
0.999268
0.997535
1.00012
0.996386
0.999724
1.00032
0.996844
1.0001
0.997813
0.999166
0.999307
0.997647
1.00001
0.99671
0.99964
1.00041
0.997167
1.00002
0.997964
0.999184
0.999347
0.997773
0.999918
0.996988
0.99956
1.00053
0.99746
0.999939
0.998121
0.999202
0.999385
0.997905
0.999844
0.997227
0.99947
1.0007
0.997732
0.999867
0.998276
0.99922
0.999422
0.99804
0.999784
0.997427
0.999372
1.00091
0.997994
0.999796
0.998422
0.999235
0.999456
0.998171
0.999733
0.997582
0.999268
1.00114
0.998258
0.999714
0.998551
0.999247
0.999486
0.998291
0.999687
0.997683
0.999142
1.00135
0.998535
0.999608
0.998651
0.999252
0.999512
0.998399
0.999639
0.99772
0.998975
1.00149
0.998832
0.999455
0.998703
0.999242
0.999529
0.998488
0.99958
0.997675
0.99873
1.00143
0.99913
0.99923
0.998679
0.999202
0.999529
0.99855
0.999494
0.997516
0.998354
1.00099
0.99934
0.998872
0.99852
0.999096
0.999495
0.998581
0.999366
0.997195
0.99775
0.999753
0.999218
0.998267
0.998115
0.998846
0.999388
0.998569
0.999193
0.996647
0.996758
0.997082
0.998232
0.997124
0.997251
0.9983
0.999127
0.998509
0.999007
0.995813
0.995019
0.9919
0.995391
0.994839
0.995505
0.997124
0.998495
0.998306
0.998873
0.99474
0.992079
0.982539
0.989119
0.99032
0.992118
0.994742
0.997096
0.997828
0.999058
0.994053
0.986434
0.966731
0.977018
0.981627
0.985594
0.989814
0.993674
0.996036
0.999094
0.996144
0.979293
0.941668
0.955816
0.965765
0.973629
0.980454
0.986443
0.992008
0.99806
1.00804
0.970095
0.903991
0.9211
0.937779
0.95062
0.960193
0.967312
0.976634
0.982029
1.03726
1.01264
1.00055
1.00391
0.999618
1.00039
1.00036
1.00035
1.00039
0.999613
1.00397
1.00048
0.997022
0.998268
0.997893
1.00001
1.00003
1.00002
0.999978
0.997871
0.998366
0.996939
0.998309
0.993857
0.997541
0.998822
0.998636
0.998623
0.99879
0.997558
0.993946
0.998167
1.0006
0.99282
0.998788
0.998232
0.997838
0.997826
0.998209
0.998818
0.99287
1.00042
1.00133
0.992657
0.999843
0.997963
0.997794
0.997786
0.997944
0.999869
0.992706
1.00111
1.001
0.992435
0.999961
0.997422
0.997792
0.997787
0.997401
0.999959
0.992461
1.00079
1.00049
0.992402
0.999611
0.996719
0.997598
0.9976
0.996692
0.999579
0.992383
1.0003
1.00008
0.992716
0.999295
0.996191
0.997405
0.997418
0.996152
0.999241
0.992658
0.999893
0.999747
0.993228
0.999106
0.995931
0.997336
0.997363
0.995878
0.99904
0.993146
0.999524
0.999471
0.993771
0.998973
0.995856
0.997351
0.997396
0.995784
0.998898
0.993677
0.999188
0.999284
0.99429
0.99886
0.995891
0.997396
0.99746
0.995797
0.998785
0.99419
0.998906
0.999197
0.99479
0.998782
0.996009
0.997462
0.997548
0.99589
0.998706
0.994679
0.998696
0.999198
0.995268
0.998747
0.996197
0.997553
0.997662
0.996051
0.998674
0.995137
0.998556
0.999275
0.995718
0.998747
0.996434
0.997668
0.9978
0.99626
0.998676
0.995555
0.998477
0.999419
0.996139
0.998765
0.996696
0.997798
0.997951
0.996495
0.998693
0.995923
0.998447
0.999616
0.996534
0.998797
0.996967
0.997935
0.998108
0.99674
0.998723
0.996248
0.998437
0.999856
0.996912
0.998838
0.997239
0.998075
0.998268
0.996987
0.998768
0.996532
0.998423
1.00013
0.997275
0.998879
0.997501
0.998212
0.998425
0.99723
0.998819
0.99677
0.998396
1.00041
0.997634
0.998903
0.99774
0.998342
0.998575
0.997459
0.99887
0.996952
0.998348
1.00067
0.997991
0.998891
0.99794
0.998457
0.998713
0.99767
0.998915
0.997064
0.998253
1.00083
0.998346
0.998816
0.998077
0.998546
0.998832
0.997854
0.998942
0.997088
0.998069
1.00074
0.998666
0.998647
0.998116
0.998588
0.998919
0.998
0.998931
0.996986
0.997745
1.00019
0.998841
0.998312
0.997989
0.998537
0.998948
0.998094
0.998863
0.99671
0.99718
0.998732
0.998586
0.99767
0.997563
0.998292
0.99886
0.99811
0.998718
0.99618
0.996206
0.995641
0.997292
0.996384
0.996587
0.997662
0.998542
0.998014
0.99851
0.995318
0.994441
0.989753
0.993867
0.993764
0.994573
0.996259
0.99773
0.997677
0.998273
0.994157
0.991417
0.979441
0.98668
0.988616
0.990684
0.993448
0.995984
0.996925
0.998236
0.99328
0.985606
0.9628
0.97355
0.979029
0.98341
0.987895
0.992061
0.994742
0.997964
0.995155
0.978386
0.93719
0.95134
0.961983
0.970403
0.977681
0.984118
0.990094
0.996384
1.00659
0.96902
0.898405
0.91545
0.932529
0.946211
0.956644
0.9645
0.974352
0.980208
1.03571
1.01236
0.999819
1.00301
0.998896
0.999618
0.999577
0.999575
0.999611
0.998892
1.00306
0.999752
0.995571
0.996399
0.995985
0.997885
0.997892
0.997885
0.997858
0.995966
0.996493
0.995494
0.997459
0.992984
0.996529
0.99756
0.997384
0.997373
0.997534
0.996551
0.993088
0.997328
1.00092
0.993464
0.999457
0.998806
0.998463
0.998453
0.998784
0.999488
0.993524
1.00077
1.00246
0.994336
1.00167
0.999848
0.999745
0.999735
0.999828
1.00168
0.994349
1.00233
1.00258
0.994638
1.00229
0.99994
1.00036
1.00036
0.999923
1.00231
0.994619
1.00244
1.00239
0.994868
1.00218
0.999569
1.00048
1.00048
0.999543
1.00219
0.99484
1.00221
1.00221
0.995321
1.00199
0.999243
1.00047
1.00049
0.9992
1.00199
0.995266
1.00201
1.00199
0.995857
1.00183
0.999052
1.00047
1.0005
0.998992
1.00181
0.995763
1.00179
1.00174
0.996327
1.00163
0.998928
1.00043
1.00047
0.998846
1.00159
0.996205
1.0015
1.00149
0.996721
1.0014
0.998831
1.00034
1.0004
0.998726
1.00135
0.996573
1.00119
1.00128
0.997054
1.00116
0.998768
1.00023
1.0003
0.998636
1.0011
0.996892
1.0009
1.00117
0.997329
1.00095
0.998747
1.00011
1.00021
0.99859
1.00088
0.997175
1.00066
1.00111
0.997573
1.00077
0.998756
1
1.00012
0.998578
1.00067
0.997417
1.00046
1.00112
0.997786
1.00059
0.998783
0.999905
1.00004
0.998591
1.00049
0.997615
1.00027
1.00118
0.997985
1.00044
0.998821
0.99982
0.999968
0.998618
1.00034
0.997773
1.00012
1.00129
0.99818
1.0003
0.99887
0.999749
0.999913
0.998658
1.0002
0.997902
0.999967
1.00145
0.998368
1.00017
0.998921
0.999688
0.999871
0.998707
1.00009
0.997999
0.999813
1.00161
0.998564
1.00004
0.998964
0.999635
0.99984
0.998758
1.00001
0.998058
0.999642
1.00174
0.998771
0.999886
0.998984
0.999582
0.999815
0.998806
0.999927
0.998064
0.999433
1.00175
0.998987
0.999672
0.998957
0.999514
0.999787
0.998841
0.999844
0.997997
0.999151
1.00148
0.999175
0.999351
0.998836
0.9994
0.999732
0.998847
0.999731
0.997814
0.998735
1.00066
0.999186
0.998841
0.998533
0.999178
0.999609
0.998796
0.999554
0.997457
0.998074
0.998782
0.998676
0.997954
0.997872
0.998703
0.999319
0.998633
0.999268
0.996822
0.996978
0.995001
0.996912
0.996254
0.996501
0.997685
0.998668
0.998257
0.998827
0.995785
0.995018
0.987841
0.992525
0.992859
0.993746
0.995567
0.997243
0.997418
0.998168
0.994282
0.991662
0.975293
0.98349
0.986252
0.988466
0.991445
0.99438
0.99575
0.997343
0.992746
0.98518
0.955808
0.967757
0.974416
0.978974
0.983784
0.988624
0.992057
0.995753
0.99347
0.976991
0.926127
0.941658
0.953761
0.962748
0.97074
0.978264
0.98537
0.99231
1.00307
0.965582
0.882777
0.900576
0.918899
0.934195
0.946724
0.956775
0.968364
0.97519
1.03068
1.00871
1.0036
1.00678
1.00306
1.00396
1.00392
1.00392
1.00396
1.00306
1.00684
1.00355
0.996318
0.996946
0.996476
0.99835
0.99831
0.998303
0.998332
0.996472
0.99707
0.996278
0.994239
0.989818
0.993041
0.993916
0.993711
0.993703
0.9939
0.993062
0.989941
0.994165
0.99561
0.987859
0.99348
0.992835
0.992484
0.992477
0.992815
0.993496
0.987912
0.995507
0.996332
0.987419
0.994325
0.992664
0.992495
0.992484
0.99264
0.99433
0.987416
0.996197
0.996276
0.987475
0.994607
0.992421
0.992675
0.992664
0.99241
0.994608
0.987419
0.996113
0.996341
0.988129
0.994827
0.992359
0.99303
0.993033
0.992356
0.994822
0.988039
0.996147
0.996656
0.989271
0.99528
0.992657
0.99362
0.993635
0.992635
0.995263
0.989154
0.996425
0.997018
0.990527
0.995823
0.993166
0.994307
0.994333
0.993122
0.995793
0.990388
0.996743
0.997323
0.991671
0.996312
0.993723
0.994954
0.994988
0.993656
0.99626
0.991502
0.996995
0.997585
0.992681
0.996718
0.994265
0.995518
0.995564
0.994178
0.996645
0.992464
0.997188
0.997865
0.993557
0.997057
0.994783
0.996002
0.996067
0.994671
0.996975
0.993303
0.997351
0.998183
0.994296
0.997356
0.995277
0.996421
0.996506
0.995139
0.997276
0.994037
0.997486
0.998494
0.994941
0.997633
0.995745
0.996786
0.996892
0.995578
0.997532
0.99467
0.997599
0.998816
0.99551
0.997876
0.996178
0.997107
0.997232
0.995983
0.997748
0.99519
0.997723
0.999149
0.996022
0.99809
0.996572
0.997389
0.997533
0.996356
0.997945
0.995604
0.997857
0.999481
0.996498
0.998279
0.996932
0.997637
0.9978
0.996697
0.99812
0.995945
0.997954
0.999822
0.99694
0.998433
0.997251
0.997853
0.998035
0.997003
0.998273
0.996221
0.997998
1.00015
0.997355
0.998533
0.997519
0.998035
0.998238
0.997273
0.998398
0.996425
0.997982
1.00044
0.997746
0.998558
0.997728
0.99818
0.998408
0.997503
0.99849
0.996547
0.997892
1.00058
0.998126
0.998489
0.997858
0.998277
0.998539
0.997688
0.998538
0.996564
0.997692
1.00039
0.998477
0.998302
0.997865
0.998297
0.998608
0.997813
0.998521
0.996439
0.997326
0.999646
0.998667
0.997918
0.997666
0.998177
0.998572
0.997848
0.998407
0.996111
0.996682
0.997874
0.998351
0.997167
0.997074
0.997757
0.998322
0.997727
0.998143
0.995479
0.995573
0.994009
0.996656
0.995561
0.995669
0.996682
0.997624
0.997331
0.997678
0.994419
0.993575
0.985732
0.991589
0.991983
0.992621
0.99425
0.995955
0.996332
0.996901
0.992856
0.990147
0.9701
0.980067
0.984162
0.986325
0.989216
0.992385
0.994181
0.995734
0.991183
0.983533
0.946706
0.961444
0.970231
0.974795
0.979564
0.984841
0.989066
0.993031
0.991357
0.975155
0.908814
0.928877
0.944049
0.953565
0.962081
0.970498
0.978994
0.986852
0.999408
0.963122
0.856307
0.875977
0.895892
0.912974
0.927836
0.940227
0.954452
0.963391
1.0219
1.00589
0.999563
1.00354
0.999752
1.00048
1.00049
1.00049
1.00047
0.999751
1.00356
0.999502
0.994941
0.996229
0.995482
0.996924
0.996953
0.996949
0.996911
0.995479
0.996282
0.994863
0.999324
0.994121
0.997298
0.99815
0.998051
0.998044
0.998137
0.99732
0.994179
0.999164
1.0038
0.995502
1.00075
1.00041
1.00017
1.00017
1.00041
1.00078
0.99554
1.00362
1.00493
0.996245
1.00232
1.00113
1.00101
1.00102
1.00113
1.00236
0.996251
1.00477
1.00438
0.99621
1.00248
1.00084
1.00105
1.00106
1.00081
1.00249
0.996185
1.00424
1.00369
0.996285
1.00233
1.0004
1.00092
1.00092
1.00034
1.00231
0.996246
1.00355
1.00313
0.996594
1.00217
1.00003
1.00079
1.00079
0.999977
1.00211
0.996553
1.00296
1.00259
0.996935
1.00196
0.999713
1.00062
1.00063
0.999662
1.00187
0.996901
1.00238
1.00208
0.997196
1.00168
0.99942
1.00042
1.00045
0.999369
1.00157
0.997187
1.00181
1.00165
0.997394
1.0014
0.999184
1.00022
1.00027
0.999124
1.00127
0.997414
1.00132
1.00134
0.997593
1.00115
0.999036
1.00007
1.00012
0.998962
1.00101
0.997598
1.00095
1.00116
0.997805
1.00095
0.99896
0.999955
1.00002
0.99887
1.00079
0.997746
1.00067
1.00107
0.997991
1.0008
0.998939
0.999882
0.99995
0.998832
1.00063
0.997882
1.00045
1.00107
0.998169
1.00068
0.998961
0.999837
0.999915
0.998834
1.00052
0.998015
1.00027
1.00115
0.998344
1.0006
0.999013
0.999813
0.999902
0.998863
1.00042
0.998134
1.00013
1.0013
0.998523
1.00054
0.999086
0.999808
0.999912
0.998915
1.00036
0.998236
1.00001
1.00154
0.998737
1.00048
0.999174
0.999824
0.999948
0.998992
1.00033
0.99832
0.999911
1.00182
0.999015
1.00042
0.999275
0.999862
1.00001
0.999095
1.00033
0.998392
0.999823
1.00211
0.999389
1.00032
0.999378
0.999921
1.0001
0.999223
1.00035
0.998447
0.999731
1.00229
0.999852
1.00016
0.999454
0.999994
1.00022
0.999376
1.0004
0.998473
0.999608
1.00214
1.00032
0.999911
0.999454
1.00005
1.00036
0.999552
1.00046
0.998451
0.999408
1.00124
1.0006
0.999457
0.999262
1
1.00047
0.999734
1.00052
0.998341
0.99904
0.998877
1.0001
0.998572
0.998641
0.99964
1.0004
0.999856
1.00054
0.998075
0.998338
0.993787
0.99751
0.996585
0.99703
0.998482
0.999833
0.999758
1.00049
0.99757
0.996911
0.982677
0.990029
0.991966
0.993358
0.995626
0.998072
0.999005
1.00019
0.996772
0.994219
0.962474
0.974849
0.982165
0.985581
0.989417
0.993841
0.99683
0.999509
0.996263
0.988679
0.939846
0.957924
0.9673
0.972034
0.977795
0.984771
0.990935
0.996746
0.997851
0.98174
0.904127
0.924903
0.939262
0.947223
0.956757
0.967725
0.979526
0.99042
1.00925
0.974023
0.846702
0.860463
0.881135
0.899674
0.916351
0.931047
0.948681
0.960382
1.03134
1.02884
0.814287
0.825052
0.843887
0.864837
0.884315
0.900328
0.921252
0.928713
1.00558
1.02911
0.791268
0.799805
0.817879
0.83911
0.859319
0.876196
0.898569
0.907426
0.979472
1.04682
0.766671
0.773795
0.791246
0.811615
0.831128
0.847503
0.869726
0.882409
0.944846
1.04923
0.740992
0.746861
0.763939
0.782741
0.800455
0.815339
0.83567
0.851544
0.903301
1.0213
0.714565
0.719127
0.735871
0.752745
0.768214
0.780939
0.798057
0.814655
0.855307
0.971318
0.687647
0.690723
0.706937
0.721414
0.734077
0.744113
0.757577
0.77345
0.803293
0.908723
0.660413
0.661803
0.677003
0.688686
0.698205
0.705076
0.714432
0.72842
0.749578
0.839411
0.632954
0.632499
0.646077
0.654676
0.660882
0.664384
0.669563
0.680405
0.694813
0.767036
0.605321
0.603027
0.614393
0.619725
0.622324
0.622122
0.622811
0.629701
0.638396
0.694255
0.577657
0.573645
0.582266
0.583952
0.58209
0.577454
0.573398
0.576037
0.579731
0.621152
0.550072
0.544379
0.549614
0.546857
0.539839
0.530518
0.522149
0.52053
0.519975
0.548938
0.522452
0.514993
0.515996
0.508137
0.4961
0.482536
0.47049
0.464917
0.460816
0.47958
0.494537
0.485188
0.481389
0.468454
0.451966
0.434795
0.419712
0.410785
0.403836
0.414661
0.46609
0.454859
0.446265
0.428755
0.408444
0.388335
0.370924
0.359411
0.350316
0.355305
0.437045
0.424176
0.411161
0.38968
0.366211
0.343889
0.324866
0.311532
0.3009
0.301761
0.407641
0.393371
0.376406
0.351627
0.32571
0.301892
0.281891
0.267372
0.255642
0.253564
0.378073
0.362584
0.342225
0.314857
0.287211
0.262541
0.242072
0.226811
0.214238
0.20991
0.348386
0.331949
0.308807
0.279561
0.250887
0.225916
0.205346
0.189627
0.176415
0.170355
0.318672
0.301621
0.276338
0.245912
0.216887
0.19207
0.171716
0.155786
0.142169
0.134509
0.289128
0.271799
0.245029
0.214112
0.185347
0.161121
0.141183
0.125073
0.111277
0.102276
0.260033
0.242715
0.215117
0.184365
0.156414
0.133023
0.113598
0.0976004
0.0840956
0.0743006
0.231714
0.214633
0.186851
0.156848
0.13015
0.107758
0.0891944
0.0738471
0.0612065
0.0512721
0.204515
0.187832
0.160461
0.131728
0.106553
0.0855054
0.0682606
0.0541296
0.0428428
0.0336126
0.178757
0.162589
0.136139
0.10914
0.0857282
0.0664017
0.0509025
0.0384684
0.0288736
0.0210151
0.154708
0.13915
0.114056
0.0890816
0.0677178
0.050447
0.0370287
0.026563
0.0187835
0.0125907
0.132576
0.117713
0.094333
0.0715559
0.0524857
0.0375202
0.0263363
0.0178693
0.0118357
0.00728013
0.112498
0.0983967
0.0770104
0.0565505
0.0399331
0.0273722
0.0183636
0.0117456
0.00725781
0.00410019
0.0945325
0.0812662
0.0620005
0.043969
0.0298655
0.0196345
0.0125873
0.00757124
0.00435622
0.00226441
0.0786618
0.0663661
0.0492132
0.0336508
0.0219847
0.0138764
0.00850241
0.00480997
0.00257586
0.00122875
0.0648171
0.0536778
0.0385324
0.0253779
0.0159678
0.00970204
0.00569298
0.00304567
0.00152215
0.000663572
0.826801
0.842592
0.863037
0.882831
0.900921
0.915492
0.933449
0.938714
1.00639
1.00547
0.805598
0.819331
0.840504
0.861343
0.88038
0.895765
0.915593
0.921545
0.986922
1.01779
0.78189
0.793989
0.816127
0.837777
0.857148
0.872448
0.892715
0.901767
0.960562
1.02454
0.756403
0.766515
0.789446
0.811594
0.831083
0.846023
0.865212
0.877251
0.927624
1.01108
0.729644
0.737212
0.760639