/*--------------------------------*- C++ -*----------------------------------*\
| =========                 |                                                 |
| \\      /  F ield         | OpenFOAM: The Open Source CFD Toolbox           |
|  \\    /   O peration     | Version:  4.1                                   |
|   \\  /    A nd           | Web:      www.OpenFOAM.org                      |
|    \\/     M anipulation  |                                                 |
\*---------------------------------------------------------------------------*/
FoamFile
{
    version     2.0;
    format      ascii;
    class       volScalarField;
    location    "25";
    object      T;
}
// * * * * * * * * * * * * * * * * * * * * * * * * * * * * * * * * * * * * * //

dimensions      [0 0 0 1 0 0 0];

internalField   nonuniform List<scalar> 
12000
(
0.99957
1.00357
0.999796
1.00052
1.00054
1.00054
1.00052
0.999795
1.00358
0.999545
0.994909
0.99621
0.995478
0.996931
0.996962
0.996954
0.99692
0.995477
0.996243
0.994864
0.999185
0.99403
0.997232
0.998097
0.998001
0.998
0.998091
0.997251
0.994062
0.999118
1.00344
0.995198
1.00048
1.00014
0.999947
0.999926
1.00015
1.0005
0.99519
1.00334
1.00418
0.995555
1.00167
1.0005
1.00051
1.00041
1.00051
1.0017
0.995507
1.00404
1.00298
0.994888
1.00123
0.999622
0.999966
0.999864
0.999627
1.00124
0.994861
1.00282
1.00125
0.993966
1.00012
0.998246
0.998865
0.998851
0.998247
1.00011
0.993993
1.00108
0.999074
0.992743
0.998494
0.996475
0.997289
0.997345
0.996472
0.998498
0.992836
0.998915
0.996104
0.990782
0.996091
0.99404
0.995014
0.995111
0.99405
0.996113
0.990952
0.995993
0.992043
0.9877
0.992594
0.990644
0.991759
0.991882
0.9907
0.992688
0.987976
0.992025
0.986564
0.983104
0.987713
0.985996
0.987215
0.987373
0.986106
0.987938
0.983566
0.986718
0.979219
0.976591
0.981083
0.979689
0.981005
0.981217
0.979894
0.981519
0.977348
0.979699
0.969483
0.967702
0.972192
0.971226
0.97267
0.97296
0.971624
0.972979
0.968898
0.970501
0.956732
0.955827
0.960496
0.960066
0.961691
0.962095
0.960783
0.961827
0.957734
0.958597
0.94031
0.940361
0.945421
0.945637
0.947524
0.948099
0.946849
0.947571
0.943373
0.943492
0.919563
0.920687
0.926348
0.927365
0.929624
0.930455
0.929321
0.929731
0.925368
0.924744
0.893841
0.896204
0.902696
0.904708
0.907485
0.908688
0.907753
0.907898
0.903338
0.901995
0.86254
0.866375
0.87395
0.87719
0.880679
0.882412
0.881799
0.881769
0.877026
0.87501
0.825132
0.830759
0.839684
0.844443
0.848891
0.851366
0.851252
0.851191
0.846332
0.843727
0.781206
0.789047
0.799609
0.806244
0.811956
0.815449
0.816065
0.816193
0.81135
0.808278
0.730488
0.74104
0.753592
0.762515
0.769867
0.774724
0.776376
0.776991
0.772378
0.769006
0.672903
0.686699
0.701685
0.713351
0.722789
0.729423
0.732507
0.733982
0.72991
0.726458
0.608711
0.626201
0.644131
0.659001
0.671025
0.679914
0.684927
0.687738
0.684618
0.681352
0.538703
0.560004
0.581409
0.59987
0.614974
0.626646
0.634184
0.638935
0.637291
0.634528
0.464462
0.488975
0.514198
0.536467
0.55506
0.570065
0.580823
0.588281
0.588777
0.586817
0.388369
0.41463
0.443479
0.469421
0.491681
0.510483
0.525202
0.536335
0.539896
0.539049
0.312886
0.339062
0.370507
0.399472
0.425226
0.448077
0.467455
0.483447
0.491494
0.491489
0.244128
0.267751
0.298245
0.328156
0.356312
0.38272
0.406944
0.428906
0.444378
0.445653
0.184167
0.202947
0.229567
0.257901
0.286585
0.315156
0.343695
0.371905
0.400099
0.401619
0.131961
0.144874
0.166581
0.191679
0.218074
0.245285
0.274938
0.305823
0.3562
0.380105
1.00358
1.00673
1.003
1.0039
1.00386
1.00386
1.0039
1.003
1.00677
1.00352
0.996233
0.996804
0.996336
0.99821
0.998167
0.998165
0.998196
0.996332
0.9969
0.996176
0.994063
0.989584
0.992808
0.993698
0.993497
0.993487
0.993681
0.992823
0.989671
0.993961
0.995242
0.987486
0.993123
0.992501
0.992141
0.992141
0.992482
0.993152
0.987572
0.995099
0.995609
0.986766
0.993703
0.992059
0.991836
0.991896
0.992043
0.993733
0.986876
0.995431
0.994957
0.986298
0.993491
0.991336
0.991523
0.991608
0.991316
0.993517
0.98639
0.99479
0.994055
0.986068
0.992874
0.990479
0.991122
0.991174
0.990458
0.992898
0.986127
0.993926
0.992858
0.985804
0.991994
0.989499
0.99049
0.990518
0.989478
0.992011
0.985835
0.992767
0.990931
0.984916
0.9905
0.988058
0.989276
0.989306
0.988044
0.99054
0.984961
0.990877
0.98789
0.982876
0.987979
0.985726
0.987088
0.987142
0.985731
0.988069
0.982999
0.987884
0.983339
0.979334
0.984078
0.982104
0.983571
0.983663
0.982169
0.98426
0.979603
0.983457
0.976867
0.973893
0.978399
0.9768
0.978353
0.9785
0.976979
0.978756
0.974406
0.977242
0.968017
0.966013
0.970486
0.96936
0.971001
0.971229
0.969715
0.971141
0.96695
0.968817
0.956166
0.955168
0.959816
0.959265
0.961028
0.961373
0.959897
0.960951
0.95678
0.957696
0.940679
0.940784
0.9458
0.945952
0.947908
0.948425
0.947023
0.947692
0.943421
0.943425
0.920912
0.922252
0.927861
0.928859
0.931111
0.931875
0.930602
0.930897
0.926422
0.925566
0.896214
0.898991
0.905432
0.907444
0.910139
0.911254
0.910187
0.910159
0.905423
0.903716
0.865979
0.87046
0.877996
0.881229
0.884554
0.886168
0.885415
0.885158
0.880153
0.877617
0.829692
0.836193
0.845121
0.849834
0.854027
0.856331
0.856049
0.855707
0.850487
0.847185
0.786967
0.795839
0.806496
0.81301
0.81837
0.82161
0.822014
0.821786
0.816479
0.81253
0.73755
0.749228
0.761987
0.770672
0.777557
0.782043
0.783417
0.78357
0.778385
0.773968
0.681408
0.696367
0.711654
0.722915
0.731739
0.737844
0.740548
0.741438
0.736664
0.732022
0.618889
0.637488
0.655757
0.67002
0.681234
0.689392
0.693867
0.695945
0.691967
0.687391
0.550794
0.573129
0.594794
0.612429
0.626484
0.637177
0.643952
0.647778
0.645079
0.64091
0.4785
0.504208
0.529499
0.550732
0.568014
0.581736
0.591422
0.597688
0.596869
0.593418
0.404012
0.432083
0.460854
0.485634
0.50635
0.523534
0.536784
0.54636
0.548229
0.545788
0.329881
0.358582
0.390077
0.417981
0.442055
0.462945
0.480373
0.494317
0.500085
0.49832
0.260024
0.28708
0.319238
0.349007
0.375733
0.400038
0.42189
0.441271
0.453554
0.452628
0.19722
0.22061
0.250873
0.280684
0.308709
0.335358
0.361281
0.386425
0.410163
0.408521
0.143557
0.161457
0.187327
0.215064
0.242291
0.268889
0.29671
0.32492
0.36969
0.385719
0.999807
1.003
0.998886
0.999609
0.999568
0.999566
0.999605
0.998887
1.00305
0.999742
0.995508
0.996346
0.995948
0.99785
0.997856
0.997849
0.997827
0.995931
0.996439
0.995439
0.997279
0.992822
0.996369
0.997404
0.99723
0.997217
0.997379
0.996389
0.992919
0.997146
1.00054
0.993139
0.999125
0.998486
0.998145
0.998138
0.998462
0.999156
0.993203
1.00039
1.00174
0.993717
1.00104
0.999249
0.999149
0.999158
0.999225
1.00107
0.99375
1.0016
1.0013
0.993505
1.00118
0.998876
0.99932
0.999319
0.998853
1.00121
0.993511
1.00116
1.00019
0.992884
1.00027
0.997736
0.998703
0.998684
0.99772
1.00029
0.992877
1.00007
0.998582
0.991989
0.99881
0.996183
0.997511
0.997492
0.996181
0.998846
0.991985
0.99847
0.996178
0.99048
0.996715
0.994128
0.995677
0.995676
0.994142
0.996775
0.990495
0.996125
0.992677
0.987938
0.99366
0.991243
0.992925
0.992957
0.991281
0.993771
0.988026
0.992711
0.987793
0.984
0.989313
0.98717
0.988934
0.989009
0.987263
0.989522
0.984239
0.987962
0.981135
0.978269
0.983309
0.98154
0.983356
0.983488
0.98173
0.983687
0.978765
0.981556
0.972206
0.970265
0.975216
0.973911
0.975781
0.975996
0.974264
0.975875
0.971191
0.973061
0.960411
0.959469
0.964513
0.963774
0.965733
0.966065
0.964392
0.965625
0.961051
0.962004
0.945132
0.945284
0.950624
0.950576
0.95269
0.953186
0.951609
0.952451
0.947868
0.947896
0.92573
0.927103
0.932969
0.933751
0.936122
0.936852
0.935419
0.935885
0.931188
0.930282
0.901556
0.90434
0.910981
0.912758
0.915523
0.916586
0.915365
0.9155
0.910623
0.908782
0.872004
0.876455
0.88414
0.88711
0.89045
0.89198
0.891069
0.890962
0.885882
0.883122
0.836552
0.842986
0.85201
0.856416
0.860556
0.862732
0.862275
0.862055
0.85681
0.853193
0.794797
0.803586
0.814281
0.820414
0.825635
0.828688
0.828881
0.828735
0.823422
0.81908
0.746517
0.75808
0.770803
0.779007
0.785643
0.789863
0.790967
0.791152
0.785945
0.781064
0.6917
0.706485
0.721627
0.732282
0.740719
0.746455
0.748802
0.749654
0.74481
0.739634
0.63067
0.649039
0.667021
0.680517
0.691177
0.698835
0.702835
0.704773
0.700644
0.695466
0.564148
0.586265
0.607489
0.624175
0.637479
0.647507
0.653648
0.657192
0.654225
0.649384
0.493429
0.519046
0.543771
0.563889
0.580198
0.59305
0.601898
0.607688
0.60643
0.60223
0.420417
0.448694
0.476854
0.500437
0.519956
0.536018
0.548169
0.55701
0.558192
0.554899
0.347574
0.377083
0.408059
0.434782
0.457455
0.476928
0.492935
0.505815
0.510544
0.507744
0.278038
0.306812
0.339169
0.368142
0.393421
0.416043
0.436126
0.454049
0.464806
0.462423
0.214703
0.240731
0.272459
0.302305
0.32912
0.353979
0.377881
0.401208
0.422997
0.418996
0.15945
0.181186
0.210117
0.238873
0.265369
0.290305
0.316104
0.342214
0.385314
0.397407
1.00054
1.0039
0.999609
1.00038
1.00035
1.00035
1.00038
0.999607
1.00396
1.00047
0.996963
0.998224
0.997854
0.999972
0.999995
0.999984
0.999945
0.997835
0.99832
0.996891
0.998153
0.993716
0.99741
0.998697
0.998519
0.998504
0.998668
0.997432
0.993813
0.998006
1.00023
0.992516
0.998489
0.997944
0.997559
0.997548
0.99792
0.998519
0.992568
1.00007
1.00058
0.992087
0.999253
0.997394
0.997234
0.997232
0.997373
0.999282
0.992109
1.00042
0.999698
0.991364
0.998871
0.996384
0.996764
0.996772
0.996364
0.998897
0.991398
0.999504
0.998338
0.99048
0.997722
0.994924
0.99582
0.995837
0.994908
0.99774
0.990531
0.998141
0.996557
0.989474
0.996164
0.993206
0.994453
0.994484
0.993197
0.996179
0.989523
0.996404
0.994111
0.987996
0.994097
0.991137
0.992602
0.992654
0.99114
0.994133
0.988073
0.994005
0.990707
0.985613
0.991193
0.988391
0.989989
0.990071
0.988414
0.991277
0.985771
0.99066
0.986022
0.981929
0.987096
0.98458
0.986257
0.986378
0.984644
0.987272
0.982238
0.986093
0.979639
0.976541
0.981427
0.979302
0.981027
0.981202
0.97945
0.98177
0.977097
0.979936
0.971055
0.968968
0.973736
0.972102
0.973876
0.974128
0.9724
0.97436
0.969913
0.971764
0.959688
0.958666
0.963502
0.962462
0.964319
0.964682
0.96301
0.964571
0.960213
0.96111
0.944909
0.945044
0.950153
0.949826
0.95183
0.95235
0.950769
0.951909
0.947518
0.94748
0.926063
0.927497
0.933105
0.933623
0.93587
0.936614
0.935169
0.9359
0.931378
0.930393
0.902507
0.90543
0.911784
0.913306
0.915928
0.916991
0.915746
0.91611
0.911395
0.909455
0.873642
0.878289
0.88566
0.888382
0.891552
0.893062
0.892114
0.89219
0.887254
0.884389
0.838952
0.845607
0.854294
0.858449
0.862386
0.864513
0.864001
0.863915
0.858786
0.855067
0.798043
0.807049
0.817374
0.82324
0.828214
0.831181
0.831293
0.831231
0.825998
0.821547
0.750694
0.762439
0.774756
0.782651
0.788988
0.793071
0.794057
0.794269
0.789098
0.784096
0.696907
0.711801
0.726496
0.736774
0.744843
0.750375
0.752554
0.753364
0.748504
0.743192
0.63702
0.655395
0.672873
0.685897
0.696102
0.703468
0.70723
0.709046
0.704835
0.699503
0.571749
0.593756
0.614405
0.630503
0.643246
0.652868
0.658678
0.662004
0.65887
0.653851
0.502329
0.527751
0.551842
0.57126
0.586889
0.599192
0.607584
0.613042
0.611508
0.607095
0.430543
0.458657
0.486183
0.508992
0.527709
0.54305
0.554584
0.56295
0.56372
0.560153
0.358688
0.388247
0.41872
0.444695
0.466463
0.485019
0.500206
0.512446
0.516606
0.513441
0.289502
0.318793
0.351059
0.37949
0.403826
0.425344
0.44438
0.461485
0.471529
0.468581
0.225652
0.25284
0.28518
0.314854
0.340782
0.364405
0.38708
0.409455
0.430567
0.425842
0.169187
0.192664
0.222938
0.251839
0.277444
0.301023
0.325518
0.350554
0.393483
0.404698
1.00055
1.00386
0.999569
1.00035
1.00031
1.00031
1.00034
0.999566
1.00392
1.00048
0.996995
0.998183
0.997864
0.999999
1.00001
0.999997
0.999968
0.997843
0.998288
0.996924
0.998064
0.993521
0.997246
0.99853
0.998325
0.99831
0.998496
0.997266
0.993622
0.99792
1
0.992195
0.998173
0.997576
0.997152
0.997139
0.997549
0.998199
0.992239
0.999849
1.00049
0.991955
0.999187
0.997259
0.997065
0.997059
0.997235
0.999208
0.991965
1.00034
0.999944
0.991661
0.99934
0.996797
0.997173
0.997176
0.996774
0.999353
0.991673
0.999763
0.998887
0.991228
0.9987
0.995861
0.996793
0.996802
0.995839
0.998696
0.991232
0.998727
0.997345
0.990551
0.997484
0.994505
0.99582
0.995843
0.994485
0.997485
0.990544
0.997235
0.9951
0.989277
0.995624
0.992662
0.994218
0.994264
0.992651
0.995654
0.989305
0.995021
0.991852
0.987019
0.992841
0.990051
0.991757
0.991833
0.990059
0.992926
0.987135
0.991829
0.987287
0.983406
0.988802
0.98631
0.988103
0.988222
0.98636
0.988995
0.983686
0.987366
0.980995
0.978055
0.983154
0.981056
0.982901
0.983076
0.98119
0.983527
0.978585
0.981298
0.97248
0.970507
0.975472
0.973859
0.975751
0.976004
0.974141
0.976128
0.971416
0.973217
0.961181
0.960237
0.965251
0.964225
0.966192
0.966556
0.964754
0.966347
0.961743
0.962637
0.946489
0.946664
0.95193
0.951607
0.953713
0.954234
0.952528
0.953707
0.9491
0.949074
0.92776
0.929187
0.934932
0.935443
0.937782
0.938527
0.936964
0.937737
0.933033
0.932069
0.904354
0.907218
0.913687
0.915192
0.917893
0.918954
0.917599
0.918007
0.913142
0.911236
0.875672
0.88021
0.887673
0.890363
0.893596
0.895098
0.894047
0.894169
0.889114
0.886293
0.841201
0.847702
0.856453
0.860556
0.864535
0.866648
0.866038
0.865999
0.860777
0.857108
0.800548
0.809359
0.819718
0.825507
0.830496
0.833436
0.833453
0.833434
0.828132
0.823733
0.753505
0.765013
0.777323
0.785114
0.791428
0.795465
0.796354
0.796601
0.791381
0.78643
0.700086
0.714694
0.729329
0.739467
0.747468
0.752928
0.754998
0.755829
0.750934
0.745668
0.640628
0.658665
0.676012
0.688856
0.698939
0.706198
0.70983
0.711645
0.707402
0.702109
0.575835
0.59746
0.617894
0.633769
0.646331
0.655798
0.661445
0.664739
0.661565
0.656574
0.506902
0.531932
0.555723
0.574877
0.590264
0.602352
0.610534
0.615916
0.614323
0.609922
0.435537
0.463317
0.490488
0.513002
0.531425
0.54648
0.55774
0.565972
0.566651
0.56307
0.36393
0.393307
0.423444
0.44912
0.470552
0.48875
0.503585
0.51562
0.519647
0.516417
0.294643
0.324012
0.356101
0.384285
0.408267
0.429363
0.447973
0.464792
0.47466
0.471561
0.230286
0.257849
0.290296
0.319838
0.345427
0.368598
0.390806
0.412821
0.433754
0.428668
0.173167
0.197197
0.227861
0.256735
0.282011
0.305127
0.329164
0.353774
0.396675
0.407498
1.00055
1.00386
0.999569
1.00035
1.00031
1.00031
1.00034
0.999566
1.00392
1.00048
0.996994
0.998183
0.997863
0.999998
1.00001
0.999995
0.999967
0.997844
0.998285
0.996921
0.998065
0.993518
0.997242
0.998526
0.99832
0.998306
0.998494
0.997265
0.993618
0.997917
1.00001
0.992187
0.99817
0.997573
0.997146
0.997133
0.997546
0.998196
0.992235
0.999848
1.0005
0.991945
0.999188
0.997258
0.997062
0.997053
0.997233
0.999209
0.991964
1.00033
0.999952
0.991653
0.999344
0.996796
0.997172
0.99717
0.996773
0.999355
0.991671
0.999759
0.998919
0.991208
0.998694
0.995857
0.996788
0.996797
0.995837
0.998698
0.991227
0.998729
0.997401
0.990518
0.997476
0.994496
0.995814
0.995838
0.994481
0.997482
0.990537
0.99724
0.99514
0.989251
0.995623
0.99265
0.994211
0.994258
0.992645
0.995651
0.989305
0.995015
0.991857
0.987006
0.992847
0.990038
0.99175
0.991828
0.990053
0.992926
0.987146
0.991803
0.987268
0.983403
0.988814
0.986296
0.988095
0.988216
0.986355
0.98899
0.983695
0.987341
0.98097
0.978051
0.983164
0.98104
0.98289
0.983068
0.981182
0.983515
0.978587
0.981282
0.972448
0.970501
0.975476
0.973841
0.975736
0.975993
0.97413
0.976108
0.971412
0.973212
0.961143
0.960226
0.965247
0.964202
0.966172
0.96654
0.964736
0.966316
0.96173
0.962644
0.946445
0.946641
0.951917
0.951577
0.953685
0.954211
0.9525
0.953666
0.949078
0.949078
0.927701
0.929152
0.934906
0.935405
0.937746
0.938493
0.936925
0.937689
0.933005
0.932057
0.904275
0.907167
0.913643
0.91514
0.917844
0.918907
0.917548
0.91795
0.913105
0.9112
0.87557
0.880138
0.887608
0.890293
0.893528
0.895033
0.893982
0.894098
0.889063
0.886237
0.841068
0.847601
0.85636
0.860463
0.864445
0.866561
0.865953
0.865907
0.860706
0.857031
0.800378
0.809221
0.819589
0.825382
0.830376
0.83332
0.833343
0.833315
0.828032
0.823634
0.753287
0.764826
0.777148
0.784949
0.791271
0.795315
0.796212
0.796448
0.791244
0.786301
0.699808
0.714447
0.729099
0.739253
0.747265
0.752732
0.754815
0.755635
0.750752
0.7455
0.640275
0.658349
0.675717
0.688581
0.698678
0.705945
0.709594
0.711398
0.707165
0.701893
0.575395
0.597064
0.617526
0.633423
0.645999
0.655476
0.661144
0.66443
0.661263
0.656299
0.506374
0.53145
0.555276
0.57445
0.589851
0.601951
0.610156
0.615535
0.613946
0.609575
0.434942
0.462752
0.489961
0.512493
0.530926
0.545992
0.557273
0.565506
0.566193
0.562643
0.363321
0.39269
0.422849
0.448533
0.469967
0.488169
0.503022
0.515055
0.519096
0.515898
0.294094
0.323401
0.355478
0.38365
0.40762
0.428709
0.447328
0.464144
0.474028
0.47098
0.229871
0.257317
0.289689
0.319186
0.344741
0.367885
0.39008
0.412077
0.433003
0.427985
0.172841
0.196765
0.227333
0.256153
0.28139
0.304476
0.328491
0.353083
0.395951
0.406886
1.00054
1.0039
0.999608
1.00038
1.00035
1.00034
1.00038
0.999604
1.00396
1.00047
0.996961
0.998214
0.997841
0.999958
0.999978
0.999968
0.999928
0.997819
0.998312
0.996879
0.998149
0.993711
0.997403
0.998687
0.998503
0.99849
0.998656
0.99742
0.993803
0.998009
1.00025
0.992504
0.998487
0.99794
0.99755
0.997539
0.997918
0.998519
0.992558
1.00008
1.00065
0.992039
0.999254
0.997393
0.997233
0.997226
0.997378
0.999285
0.992096
1.00044
0.999761
0.991308
0.998886
0.996384
0.996769
0.996767
0.99637
0.998895
0.991349
0.999572
0.998351
0.990447
0.997748
0.994921
0.995828
0.995835
0.994908
0.997739
0.990459
0.998211
0.996537
0.98946
0.996195
0.993203
0.994464
0.994485
0.993191
0.996185
0.989463
0.996432
0.994075
0.987996
0.994127
0.991133
0.992614
0.992657
0.991128
0.994141
0.988025
0.994
0.990661
0.985618
0.991216
0.988381
0.989998
0.990071
0.988397
0.991286
0.985726
0.990645
0.985972
0.981936
0.987108
0.984565
0.98626
0.986374
0.984624
0.987285
0.982191
0.986066
0.979591
0.976547
0.981427
0.979281
0.981022
0.981193
0.979424
0.981784
0.977045
0.9799
0.971001
0.96897
0.973725
0.972075
0.973861
0.974112
0.972366
0.974375
0.969857
0.971713
0.959619
0.958655
0.963476
0.962426
0.964292
0.964654
0.962964
0.964583
0.960156
0.961034
0.94482
0.945012
0.950104
0.949773
0.951785
0.952306
0.950706
0.951909
0.947455
0.947376
0.925944
0.927434
0.933023
0.933545
0.935801
0.936549
0.935084
0.935876
0.931302
0.930263
0.902344
0.905322
0.911658
0.913192
0.915826
0.916896
0.915632
0.916052
0.911293
0.909291
0.873416
0.878119
0.88548
0.88822
0.891404
0.892926
0.891962
0.892087
0.887117
0.884184
0.838637
0.845356
0.854043
0.858222
0.862177
0.864323
0.8638
0.863755
0.8586
0.854816
0.797608
0.806686
0.817028
0.822928
0.827926
0.830918
0.831027
0.830999
0.825747
0.821237
0.750105
0.761931
0.774287
0.78223
0.788598
0.792714
0.793708
0.793947
0.788765
0.783706
0.696129
0.711112
0.725873
0.736215
0.744325
0.749897
0.752094
0.752929
0.748065
0.742702
0.636013
0.654485
0.672059
0.685165
0.695422
0.702836
0.706629
0.708472
0.704262
0.698887
0.570484
0.59259
0.613362
0.629562
0.642367
0.652045
0.657901
0.66126
0.658133
0.653084
0.500793
0.5263
0.550538
0.570073
0.585772
0.598139
0.606588
0.61209
0.610573
0.606143
0.428763
0.456926
0.4846
0.507532
0.526325
0.541731
0.553328
0.561751
0.562558
0.558986
0.356788
0.386308
0.416878
0.442957
0.464794
0.483409
0.498655
0.510951
0.515173
0.512016
0.28768
0.316802
0.349056
0.377535
0.401917
0.423478
0.442557
0.459704
0.46984
0.466963
0.224088
0.250958
0.28312
0.312748
0.338677
0.362303
0.384973
0.407323
0.428489
0.423858
0.167855
0.191009
0.221021
0.249826
0.275423
0.299008
0.323478
0.348461
0.391369
0.402917
0.999807
1.003
0.998886
0.999608
0.999567
0.999565
0.999601
0.998882
1.00305
0.999741
0.99551
0.996342
0.995932
0.997833
0.997841
0.997833
0.997806
0.995913
0.996438
0.995433
0.997294
0.992835
0.996387
0.997422
0.997247
0.997237
0.997396
0.99641
0.99294
0.997166
1.00056
0.993139
0.999147
0.998505
0.998167
0.998158
0.998485
0.999181
0.993203
1.00041
1.00176
0.993698
1.00106
0.99926
0.999166
0.999157
0.999243
1.00108
0.99372
1.00164
1.0013
0.993473
1.00118
0.998867
0.999304
0.999302
0.998857
1.00121
0.993469
1.00119
1.00018
0.992845
1.00025
0.99771
0.998647
0.998659
0.997698
1.00028
0.992849
1.00005
0.998549
0.991952
0.998785
0.996151
0.997431
0.997459
0.996136
0.998824
0.991959
0.998435
0.996133
0.990443
0.996679
0.994088
0.995583
0.995634
0.994078
0.99674
0.990466
0.996082
0.992644
0.987896
0.993609
0.991198
0.992827
0.992901
0.991208
0.993724
0.987984
0.992673
0.987756
0.983954
0.989252
0.987127
0.988834
0.988946
0.987181
0.989466
0.984176
0.987934
0.981074
0.978217
0.983245
0.981495
0.983254
0.983421
0.981637
0.983632
0.97869
0.981521
0.972127
0.9702
0.975143
0.973863
0.975675
0.975919
0.974161
0.975819
0.971109
0.973009
0.960317
0.95938
0.964422
0.963713
0.965614
0.96597
0.964277
0.965556
0.960959
0.96192
0.945014
0.945162
0.950504
0.950486
0.952551
0.953068
0.951476
0.95236
0.947759
0.947775
0.925553
0.926943
0.932809
0.933619
0.935953
0.936702
0.935256
0.935762
0.931054
0.930122
0.90129
0.904126
0.910766
0.912568
0.915309
0.91639
0.915159
0.915326
0.91045
0.90857
0.871632
0.876144
0.88384
0.88684
0.890169
0.891719
0.890805
0.890716
0.88565
0.882847
0.836028
0.842534
0.851591
0.856037
0.86018
0.862383
0.86193
0.86172
0.856493
0.852837
0.794069
0.802947
0.813701
0.819891
0.82513
0.82822
0.828427
0.828289
0.822996
0.818612
0.745514
0.757197
0.770013
0.778298
0.784969
0.78924
0.79037
0.790565
0.78538
0.780451
0.69035
0.705292
0.720566
0.731332
0.739826
0.745629
0.748017
0.748883
0.744068
0.73884
0.628893
0.647463
0.665623
0.679264
0.690005
0.697747
0.701809
0.703771
0.699679
0.694452
0.561883
0.584229
0.605679
0.622545
0.635958
0.646087
0.652317
0.655901
0.65298
0.648103
0.490643
0.516479
0.54147
0.561799
0.578243
0.591215
0.60018
0.606039
0.604845
0.600626
0.417111
0.445565
0.474008
0.497813
0.517486
0.533682
0.545977
0.55492
0.556199
0.552917
0.343909
0.373456
0.404661
0.43158
0.454405
0.474014
0.490174
0.50318
0.508056
0.505295
0.274381
0.302933
0.33536
0.364441
0.389825
0.41255
0.432762
0.450806
0.461766
0.45953
0.211235
0.236772
0.268347
0.298207
0.325064
0.349944
0.373871
0.397218
0.419183
0.415363
0.156313
0.1774
0.205957
0.234623
0.261149
0.286111
0.311877
0.337903
0.381008
0.393822
1.00359
1.00677
1.00305
1.00395
1.00391
1.00391
1.00395
1.00305
1.00683
1.00354
0.996253
0.996887
0.99642
0.998295
0.998256
0.998249
0.998278
0.996416
0.997011
0.996214
0.994067
0.989662
0.992892
0.993771
0.993568
0.99356
0.993756
0.992914
0.989786
0.993995
0.995236
0.987519
0.993156
0.99252
0.992174
0.992168
0.992502
0.993174
0.987576
0.995138
0.9956
0.986751
0.993688
0.992049
0.991889
0.991879
0.992028
0.9937
0.986757
0.995476
0.994943
0.986254
0.993443
0.991297
0.991569
0.991561
0.991294
0.993456
0.986215
0.994802
0.994036
0.986008
0.992807
0.990411
0.991113
0.991122
0.990423
0.992828
0.985952
0.993886
0.992833
0.985739
0.991919
0.989417
0.990433
0.990457
0.989424
0.991949
0.985688
0.992687
0.990897
0.98485
0.990423
0.987963
0.98919
0.989233
0.987972
0.990481
0.984835
0.990781
0.987824
0.982833
0.987905
0.985623
0.98699
0.987056
0.985653
0.988014
0.982887
0.987785
0.983252
0.979307
0.983995
0.982006
0.983469
0.983572
0.982088
0.984204
0.979484
0.983365
0.976791
0.973841
0.978299
0.976704
0.978244
0.978404
0.976883
0.978698
0.974263
0.977152
0.967932
0.965931
0.970361
0.969256
0.970877
0.971121
0.969603
0.971084
0.966801
0.968701
0.95604
0.955056
0.959661
0.959139
0.960879
0.961244
0.959765
0.960872
0.956628
0.957545
0.940497
0.940625
0.945608
0.94579
0.947723
0.948262
0.946859
0.947572
0.943247
0.943234
0.920641
0.922031
0.927612
0.928638
0.930875
0.931664
0.930392
0.930731
0.926208
0.925324
0.895813
0.898677
0.905098
0.907143
0.909829
0.910974
0.90991
0.909922
0.90515
0.903402
0.865417
0.869998
0.877535
0.880813
0.88414
0.885787
0.885045
0.884818
0.879798
0.877205
0.828918
0.835521
0.844475
0.849257
0.853469
0.855814
0.855553
0.855228
0.850016
0.846649
0.785906
0.79489
0.805607
0.81222
0.817619
0.820912
0.82135
0.821131
0.815853
0.811837
0.736108
0.747922
0.760784
0.769608
0.776555
0.78111
0.782535
0.782701
0.777559
0.773077
0.67948
0.694622
0.710057
0.721501
0.730416
0.736612
0.73939
0.740305
0.73559
0.730887
0.616371
0.63521
0.653679
0.668164
0.679507
0.687781
0.692363
0.694486
0.690587
0.685962
0.547593
0.570217
0.592139
0.610028
0.624255
0.635095
0.642014
0.64592
0.643328
0.639133
0.474544
0.500548
0.526156
0.547661
0.565157
0.579072
0.588948
0.595348
0.594676
0.591234
0.399217
0.427534
0.456706
0.481774
0.502736
0.520159
0.533651
0.543431
0.545511
0.543137
0.324575
0.353243
0.385063
0.413228
0.437557
0.458722
0.476435
0.490658
0.496744
0.495114
0.254944
0.281554
0.313661
0.343509
0.370384
0.394889
0.417002
0.436695
0.449433
0.448847
0.192312
0.214936
0.24483
0.274545
0.302583
0.329252
0.355267
0.380654
0.404992
0.403815
0.139137
0.156073
0.181162
0.208505
0.235588
0.262057
0.289757
0.31793
0.363136
0.380578
0.99955
1.00352
0.99974
1.00046
1.00048
1.00048
1.00046
0.999739
1.00355
0.999489
0.994871
0.996165
0.99542
0.996864
0.996894
0.996889
0.996851
0.995418
0.996218
0.994794
0.999138
0.993949
0.997134
0.99799
0.997893
0.997887
0.997978
0.997157
0.994009
0.99898
1.0034
0.995127
1.00039
1.00006
0.999831
0.999825
1.00006
1.00043
0.99517
1.00322
1.00414
0.995513
1.00162
1.00045
1.00035
1.00036
1.00046
1.00166
0.995529
1.00399
1.00296
0.994879
1.00121
0.999611
0.999835
0.999849
0.999587
1.00124
0.994873
1.00284
1.00123
0.993984
1.00014
0.998275
0.998834
0.998839
0.998235
1.00014
0.993982
1.00113
0.999058
0.992778
0.998528
0.996512
0.997329
0.997342
0.996492
0.99852
0.992809
0.998984
0.996098
0.990827
0.996129
0.994086
0.99509
0.99512
0.994095
0.996135
0.990926
0.996058
0.992036
0.987723
0.992633
0.990692
0.991843
0.991908
0.990748
0.992701
0.987953
0.992072
0.986539
0.983109
0.987754
0.98602
0.987286
0.987397
0.986147
0.987938
0.983549
0.986745
0.979176
0.976605
0.981107
0.979687
0.981062
0.981222
0.979933
0.98149
0.977328
0.979706
0.969418
0.967705
0.972194
0.971199
0.972708
0.972946
0.971643
0.972909
0.968845
0.970474
0.956632
0.955793
0.960468
0.960008
0.9617
0.962056
0.960769
0.961736
0.957642
0.958529
0.940159
0.940271
0.945334
0.945536
0.947487
0.948022
0.946789
0.947452
0.94324
0.943373
0.919328
0.920511
0.926183
0.927198
0.929516
0.930318
0.929195
0.929554
0.925174
0.924562
0.893475
0.8959
0.90242
0.904441
0.907278
0.908467
0.90754
0.907654
0.90306
0.901727
0.861984
0.8659
0.87351
0.876782
0.880336
0.882078
0.881472
0.881436
0.876635
0.874629
0.824302
0.830051
0.839022
0.84384
0.848366
0.850877
0.850774
0.850735
0.845799
0.843194
0.779986
0.788007
0.798639
0.805369
0.811183
0.81474
0.815384
0.815556
0.810632
0.807548
0.72873
0.739542
0.752207
0.761272
0.768766
0.773716
0.775426
0.776102
0.771418
0.768025
0.670435
0.684584
0.699762
0.711622
0.721255
0.728019
0.731203
0.732764
0.728646
0.725164
0.605369
0.623295
0.641524
0.656652
0.668921
0.677998
0.683163
0.686101
0.682973
0.679679
0.534375
0.556128
0.577954
0.596743
0.612137
0.624071
0.631832
0.636772
0.635181
0.632403
0.459158
0.484006
0.509735
0.53238
0.551302
0.566648
0.577725
0.58546
0.586105
0.584163
0.381966
0.408433
0.437843
0.464191
0.486811
0.50603
0.521168
0.532691
0.536539
0.53578
0.306416
0.332245
0.363802
0.393
0.419078
0.442371
0.462253
0.478764
0.487318
0.487533
0.238742
0.261527
0.291151
0.320786
0.349038
0.375726
0.400378
0.422902
0.439119
0.440927
0.178623
0.19632
0.222207
0.249979
0.278402
0.306894
0.335574
0.364224
0.393485
0.396119
0.126925
0.138474
0.1591
0.18365
0.209668
0.236478
0.26569
0.29633
0.347411
0.373866
0.104591
0.114113
0.131531
0.153145
0.176454
0.200772
0.228437
0.256563
0.308445
0.346802
0.0921535
0.100386
0.115925
0.135528
0.156903
0.179365
0.205319
0.231978
0.280215
0.332282
0.0809284
0.0881816
0.10207
0.119612
0.138804
0.158997
0.182554
0.207624
0.250062
0.310976
0.0709183
0.0773666
0.0898242
0.105386
0.12234
0.140121
0.160829
0.183705
0.219608
0.280217
0.0620757
0.0678283
0.079025
0.0927544
0.10758
0.122999
0.140743
0.160842
0.190095
0.244694
0.0543212
0.0594451
0.0694996
0.0815282
0.094342
0.107522
0.122455
0.139695
0.16285
0.208907
0.0475538
0.0520949
0.0610764
0.0715303
0.0824819
0.0935765
0.105905
0.120383
0.138543
0.175524
0.0416602
0.0456541
0.053604
0.0626004
0.071848
0.0810459
0.0910539
0.102915
0.117098
0.145707
0.0365252
0.0400088
0.0469574
0.054602
0.0622721
0.0697298
0.0776478
0.087111
0.0980656
0.119725
0.0320451
0.0350527
0.041024
0.0473877
0.0535384
0.0593527
0.065395
0.0727261
0.081035
0.097102
0.0281219
0.0306729
0.0356781
0.0407907
0.0455012
0.0498289
0.0542793
0.0597698
0.0659441
0.0775891
0.0246588
0.0267602
0.0308019
0.0347167
0.0381518
0.0412242
0.0443785
0.0483444
0.0528262
0.0610854
0.0215698
0.0232286
0.0263436
0.0291808
0.0315484
0.0336101
0.0357436
0.0385047
0.0416762
0.0474234
0.0187889
0.0200292
0.0223027
0.0242257
0.0257354
0.0270158
0.0283787
0.0302292
0.0324147
0.0363541
0.0162745
0.0171411
0.0186883
0.0198686
0.0207162
0.0214201
0.0222239
0.02341
0.0248672
0.027528
0.0140064
0.0145526
0.0154976
0.0161006
0.0164605
0.0167575
0.0171688
0.0178798
0.0188024
0.0205578
0.0119686
0.01225
0.0127179
0.0128932
0.0129116
0.012934
0.0130764
0.0134498
0.0139789
0.0150828
0.0101436
0.0102191
0.0103278
0.0102035
0.00999782
0.00984382
0.00980561
0.00994077
0.0101848
0.0108244
0.00851811
0.00844448
0.00829866
0.00798013
0.00764091
0.00738144
0.00722846
0.00720179
0.00724803
0.00754679
0.0070822
0.00690933
0.00659765
0.00616805
0.00576214
0.00545003
0.00522815
0.0050896
0.00500346
0.00506342
0.00582706
0.00559532
0.00518932
0.00471142
0.0042868
0.00395574
0.0036957
0.00349166
0.00332986
0.00324093
0.00474313
0.0044831
0.00403751
0.00355575
0.00314451
0.00281569
0.00254629
0.00231825
0.00212846
0.00196504
0.00381933
0.00355266
0.00310668
0.00265117
0.00227051
0.00196232
0.00170702
0.00148727
0.00130435
0.0011284
0.00304268
0.00278388
0.0023632
0.00195225
0.00161196
0.00133731
0.00111286
0.000922738
0.000767434
0.000616335
0.00239865
0.00215686
0.00177689
0.00141779
0.00112389
0.00089071
0.000706592
0.000555157
0.000434886
0.000321996
0.00187187
0.00165231
0.00132047
0.00101429
0.000768997
0.000580449
0.000438299
0.00032498
0.000238323
0.00016225
0.00144691
0.00125174
0.000969763
0.000714577
0.000516763