/*--------------------------------*- C++ -*----------------------------------*\
| =========                 |                                                 |
| \\      /  F ield         | OpenFOAM: The Open Source CFD Toolbox           |
|  \\    /   O peration     | Version:  4.1                                   |
|   \\  /    A nd           | Web:      www.OpenFOAM.org                      |
|    \\/     M anipulation  |                                                 |
\*---------------------------------------------------------------------------*/
FoamFile
{
    version     2.0;
    format      ascii;
    class       volScalarField;
    location    "900";
    object      epsilon;
}
// * * * * * * * * * * * * * * * * * * * * * * * * * * * * * * * * * * * * * //

dimensions      [0 2 -3 0 0 0 0];

internalField   nonuniform List<scalar> 
12000
(
0.318635
0.306477
0.305334
0.305031
0.304955
0.304954
0.305027
0.305327
0.306658
0.318852
0.0652375
0.0632195
0.062725
0.0623047
0.0621737
0.0621715
0.0623058
0.0627073
0.0631878
0.0651835
0.017663
0.0176303
0.0173704
0.0171336
0.0170514
0.0170476
0.017138
0.0173689
0.0176323
0.0176667
0.00616652
0.00635305
0.00623869
0.00612401
0.00608016
0.00607919
0.0061279
0.00623943
0.00635734
0.00617625
0.00263709
0.00277923
0.00273883
0.0026855
0.00265928
0.00265904
0.0026856
0.00273864
0.00278456
0.00264995
0.00132166
0.00141615
0.00140303
0.00137494
0.00136035
0.00136052
0.00137606
0.00140116
0.00141844
0.00133111
0.000748201
0.000808559
0.000806946
0.000792173
0.000783266
0.000783093
0.000793248
0.000807389
0.000810069
0.000754479
0.000464266
0.000503694
0.000508124
0.000499581
0.000493261
0.000493579
0.000500356
0.000508958
0.000505944
0.000468984
0.000309393
0.00033788
0.000342797
0.000337798
0.000333591
0.00033378
0.000338208
0.000343942
0.000339006
0.000313157
0.000217844
0.000239299
0.000244789
0.000241263
0.000238256
0.000238399
0.000242001
0.000245858
0.000240259
0.000221227
0.000160229
0.00017697
0.000182371
0.000180017
0.000177862
0.000178057
0.000180632
0.000183408
0.000178098
0.000163517
0.000122082
0.000135655
0.000140707
0.000139089
0.000137506
0.000137751
0.000139736
0.000141843
0.000136891
0.00012541
9.57506e-05
0.000107195
0.000111777
0.000110675
0.000109516
0.000109769
0.000111357
0.00011298
0.000108472
9.91969e-05
7.69132e-05
8.68449e-05
9.09899e-05
9.02354e-05
8.94215e-05
8.96968e-05
9.10085e-05
9.2298e-05
8.8165e-05
8.05284e-05
6.30105e-05
7.18333e-05
7.5695e-05
7.5162e-05
7.4586e-05
7.48634e-05
7.59617e-05
7.70666e-05
7.32738e-05
6.6867e-05
5.24509e-05
6.04315e-05
6.40952e-05
6.37952e-05
6.33848e-05
6.369e-05
6.46266e-05
6.55666e-05
6.20658e-05
5.66085e-05
4.42179e-05
5.15842e-05
5.516e-05
5.49978e-05
5.47184e-05
5.50219e-05
5.58435e-05
5.67228e-05
5.3526e-05
4.87881e-05
3.76252e-05
4.45313e-05
4.80535e-05
4.80469e-05
4.79034e-05
4.82545e-05
4.89913e-05
4.97836e-05
4.68663e-05
4.26869e-05
3.22087e-05
3.88205e-05
4.2305e-05
4.24491e-05
4.24207e-05
4.27638e-05
4.34629e-05
4.42988e-05
4.16841e-05
3.79397e-05
2.76258e-05
3.40597e-05
3.7528e-05
3.78483e-05
3.7961e-05
3.83938e-05
3.9064e-05
3.98729e-05
3.75432e-05
3.41312e-05
2.36295e-05
2.99783e-05
3.35228e-05
3.40209e-05
3.42272e-05
3.46812e-05
3.53836e-05
3.63013e-05
3.43238e-05
3.11902e-05
2.00085e-05
2.63456e-05
3.00436e-05
3.0768e-05
3.11295e-05
3.1735e-05
3.2427e-05
3.33523e-05
3.16886e-05
2.87746e-05
1.66021e-05
2.29526e-05
2.69725e-05
2.79611e-05
2.83993e-05
2.90428e-05
2.986e-05
3.09807e-05
2.97401e-05
2.70307e-05
1.32425e-05
1.96795e-05
2.41139e-05
2.54815e-05
2.61309e-05
2.69732e-05
2.77901e-05
2.89638e-05
2.80625e-05
2.557e-05
9.81363e-06
1.6219e-05
2.13459e-05
2.31477e-05
2.39267e-05
2.48351e-05
2.59165e-05
2.73987e-05
2.69629e-05
2.47627e-05
6.11033e-06
1.25276e-05
1.83858e-05
2.09482e-05
2.2138e-05
2.32527e-05
2.43045e-05
2.59698e-05
2.59013e-05
2.41319e-05
2.54387e-06
8.26864e-06
1.50481e-05
1.83402e-05
1.99073e-05
2.1289e-05
2.28044e-05
2.49503e-05
2.54211e-05
2.40846e-05
1.33915e-06
4.55994e-06
1.08659e-05
1.55624e-05
1.79868e-05
1.96695e-05
2.1061e-05
2.368e-05
2.49335e-05
2.47286e-05
2.05188e-06
3.67836e-06
5.92705e-06
9.5965e-06
1.4204e-05
1.73402e-05
1.94663e-05
2.24136e-05
2.49875e-05
2.50512e-05
4.31699e-06
6.35489e-06
6.90117e-06
7.4944e-06
8.35392e-06
1.13413e-05
1.55152e-05
2.02552e-05
2.38837e-05
2.76374e-05
0.306476
0.570445
0.540649
0.540429
0.540433
0.540437
0.540427
0.540645
0.570346
0.306239
0.0632162
0.010281
0.00673041
0.00669363
0.00670152
0.00668051
0.00670611
0.00675705
0.0102722
0.0627406
0.0176275
0.000786272
0.000387785
0.000416493
0.000398104
0.000418554
0.000400287
0.000399964
0.000782652
0.0174549
0.00635009
0.000325779
7.74498e-05
8.7711e-05
7.84761e-05
8.27818e-05
7.8604e-05
7.84083e-05
0.000321888
0.00627585
0.00277725
0.000270022
4.48953e-05
3.6824e-05
3.95402e-05
3.79215e-05
3.86148e-05
5.42868e-05
0.000256559
0.00275118
0.00141423
0.000210728
4.03043e-05
2.89326e-05
4.13818e-05
3.36723e-05
4.1282e-05
4.84017e-05
0.000231992
0.00140504
0.000807129
0.000155283
4.40018e-05
2.44565e-05
4.40305e-05
3.94471e-05
4.44293e-05
5.10184e-05
0.000175737
0.000805605
0.000502372
0.000115444
3.58039e-05
3.02496e-05
3.38905e-05
3.36617e-05
3.60264e-05
4.05452e-05
0.000137847
0.000505135
0.000336632
9.49e-05
2.66038e-05
2.61227e-05
2.98925e-05
2.91975e-05
2.99854e-05
3.26235e-05
9.89387e-05
0.000339561
0.000238061
7.64207e-05
2.41487e-05
2.23486e-05
2.43109e-05
2.29887e-05
2.45421e-05
2.67086e-05
7.95769e-05
0.000241244
0.000175739
6.33744e-05
1.82932e-05
1.84553e-05
2.14285e-05
1.98925e-05
2.10509e-05
2.16701e-05
5.81607e-05
0.000179221
0.000134415
4.87448e-05
1.55023e-05
1.47522e-05
1.6852e-05
1.61558e-05
1.62188e-05
1.68268e-05
4.48353e-05
0.000138084
0.000105925
3.94478e-05
1.19812e-05
1.26548e-05
1.36746e-05
1.36165e-05
1.32973e-05
1.39834e-05
3.60638e-05
0.000109675
8.55169e-05
3.26021e-05
1.00081e-05
1.10277e-05
1.1565e-05
1.18215e-05
1.14981e-05
1.19008e-05
2.93918e-05
8.93847e-05
7.04307e-05
2.75151e-05
9.19745e-06
9.82723e-06
1.00018e-05
1.0289e-05
1.01643e-05
1.02894e-05
2.43052e-05
7.44535e-05
5.8929e-05
2.35142e-05
8.50394e-06
8.96857e-06
8.87278e-06
9.10904e-06
9.15724e-06
9.04097e-06
2.03665e-05
6.31888e-05
4.99714e-05
2.05596e-05
8.05499e-06
8.25409e-06
7.9407e-06
8.12775e-06
8.37257e-06
8.02365e-06
1.73619e-05
5.44527e-05
4.27834e-05
1.81042e-05
7.46849e-06
7.61274e-06
7.2211e-06
7.36228e-06
7.67194e-06
7.21143e-06
1.49688e-05
4.76541e-05
3.69449e-05
1.63993e-05
7.06616e-06
6.96741e-06
6.59881e-06
6.68003e-06
7.05018e-06
6.50445e-06
1.31133e-05
4.21737e-05
3.20406e-05
1.53151e-05
6.72795e-06
6.39319e-06
6.01022e-06
6.11023e-06
6.50436e-06
5.98209e-06
1.16236e-05
3.78753e-05
2.78623e-05
1.45489e-05
6.519e-06
5.96392e-06
5.59648e-06
5.63198e-06
6.00973e-06
5.51823e-06
1.04065e-05
3.42219e-05
2.41375e-05
1.42847e-05
6.56967e-06
5.60555e-06
5.24175e-06
5.21082e-06
5.55533e-06
5.21633e-06
9.3812e-06
3.14377e-05
2.07842e-05
1.44416e-05
6.61956e-06
5.52362e-06
5.02893e-06
4.96533e-06
5.2727e-06
4.94555e-06
8.58736e-06
2.88708e-05
1.7622e-05
1.46967e-05
7.14494e-06
5.56323e-06
5.01008e-06
4.78727e-06
5.00916e-06
4.9035e-06
7.8048e-06
2.69408e-05
1.45707e-05
1.50191e-05
7.90951e-06
5.66265e-06
5.12739e-06
4.95864e-06
5.09404e-06
4.8776e-06
7.33105e-06
2.50203e-05
1.14199e-05
1.56588e-05
9.16628e-06
6.3113e-06
5.3501e-06
5.03482e-06
5.13886e-06
5.22242e-06
6.7662e-06
2.37613e-05
8.27984e-06
1.69319e-05
1.12834e-05
6.84666e-06
5.88116e-06
5.53104e-06
5.59619e-06
5.39357e-06
7.20959e-06
2.23999e-05
5.18192e-06
1.86553e-05
1.39191e-05
8.54011e-06
6.39937e-06
5.93092e-06
5.96081e-06
6.30832e-06
7.07147e-06
2.14239e-05
3.62589e-06
2.20692e-05
1.88889e-05
1.09727e-05
7.89893e-06
6.81487e-06
7.0232e-06
6.9848e-06
1.10009e-05
1.94946e-05
3.86085e-06
2.4669e-05
2.57672e-05
1.77205e-05
1.08211e-05
8.4124e-06
8.34086e-06
8.88736e-06
1.46133e-05
2.16773e-05
0.305332
0.54065
0.509452
0.509313
0.509301
0.509302
0.509315
0.509452
0.540602
0.304809
0.0627259
0.00676789
0.0030968
0.00304257
0.00303737
0.00303697
0.00304193
0.00308923
0.00673429
0.0621677
0.0173735
0.000367968
0.000440162
5.92373e-05
6.05671e-05
7.46246e-05
6.803e-05
0.000301831
0.000383476
0.0172052
0.00623593
7.72507e-05
1.23024e-05
3.33097e-07
3.43707e-07
3.42802e-07
2.97566e-07
0.000126588
7.71173e-05
0.00616948
0.00273802
4.68734e-05
2.74842e-07
4.35558e-08
1.05198e-07
5.98443e-08
7.59276e-08
7.39674e-05
4.33492e-05
0.00271361
0.00140071
5.01925e-05
2.28147e-07
4.65794e-08
9.2899e-08
5.94658e-08
1.68959e-07
6.12845e-06
3.72615e-05
0.00139485
0.000805689
4.00045e-05
5.47328e-07
8.13297e-08
9.2234e-08
1.21704e-07
2.23312e-07
2.63371e-07
4.02374e-05
0.000805512
0.000506598
3.73373e-05
5.52753e-07
8.8907e-08
9.10423e-08
2.15625e-07
1.45044e-07
1.14462e-07
3.31857e-05
0.000509021
0.000341678
3.1243e-05
4.17027e-07
3.17208e-07
1.45443e-07
2.42674e-07
3.65122e-07
2.79025e-07
2.48139e-05
0.000344497
0.000243392
2.61394e-05
5.40519e-07
2.60489e-07
1.49614e-07
2.02369e-07
2.47181e-07
3.25476e-07
2.14643e-05
0.000246169
0.000181088
2.16454e-05
4.26117e-07
2.12258e-07
1.63283e-07
1.9482e-07
2.2395e-07
2.89916e-07
1.63723e-05
0.000183605
0.000139502
1.81433e-05
4.28179e-07
2.4138e-07
1.55227e-07
2.11973e-07
2.00985e-07
3.09727e-07
1.41991e-05
0.000141867
0.000110582
1.46466e-05
3.97138e-07
2.26519e-07
1.74218e-07
2.08708e-07
2.05488e-07
3.03521e-07
1.15889e-05
0.000112866
8.97612e-05
1.27746e-05
4.2253e-07
2.37119e-07
1.73421e-07
2.17655e-07
2.18328e-07
3.20184e-07
9.91477e-06
9.2129e-05
7.43723e-05
1.15711e-05
4.61057e-07
2.45626e-07
1.81302e-07
2.20906e-07
2.34489e-07
3.23818e-07
8.59745e-06
7.67748e-05
6.26352e-05
1.0717e-05
5.07354e-07
2.54792e-07
1.88071e-07
2.21739e-07
2.49582e-07
3.25012e-07
7.75465e-06
6.53065e-05
5.34789e-05
1.00777e-05
5.68308e-07
2.5117e-07
1.91508e-07
2.22275e-07
2.54589e-07
3.20194e-07
6.99243e-06
5.63153e-05
4.61485e-05
9.66323e-06
6.15744e-07
2.63298e-07
1.97148e-07
2.21753e-07
2.62669e-07
3.212e-07
6.30716e-06
4.94139e-05
4.01397e-05
9.3509e-06
7.10419e-07
2.69219e-07
2.01237e-07
2.25117e-07
2.87719e-07
3.19234e-07
5.63393e-06
4.36242e-05
3.51271e-05
9.39652e-06
8.84862e-07
2.89016e-07
2.05558e-07
2.19571e-07
2.74616e-07
3.1456e-07
5.03381e-06
3.92187e-05
3.08208e-05
9.48603e-06
1.02545e-06
3.0828e-07
2.0692e-07
2.17743e-07
2.88023e-07
3.10628e-07
4.44472e-06
3.51639e-05
2.69946e-05
9.6964e-06
1.19676e-06
3.42688e-07
2.16504e-07
2.20705e-07
2.93989e-07
3.09365e-07
3.93315e-06
3.22654e-05
2.35488e-05
9.88632e-06
1.39055e-06
3.94301e-07
2.40096e-07
2.30057e-07
2.95061e-07
3.0998e-07
3.43694e-06
2.91894e-05
2.03483e-05
1.05729e-05
1.72827e-06
4.6236e-07
2.64447e-07
2.33528e-07
2.97273e-07
3.15107e-07
2.99168e-06
2.71998e-05
1.73415e-05
1.09383e-05
2.03076e-06
5.6599e-07
3.07049e-07
2.7228e-07
3.00991e-07
3.22412e-07
2.5748e-06
2.46552e-05
1.44619e-05
1.18922e-05
2.70474e-06
6.7999e-07
4.25383e-07
3.00755e-07
3.4799e-07
3.43689e-07
2.18447e-06
2.31413e-05
1.17014e-05
1.24797e-05
3.96967e-06
1.02906e-06
4.66026e-07
4.04368e-07
3.90044e-07
3.70441e-07
1.88464e-06
2.0712e-05
9.00688e-06
1.33623e-05
6.04227e-06
1.42635e-06
7.18071e-07
4.66024e-07
4.39243e-07
4.68305e-07
1.55439e-06
1.91465e-05
6.62224e-06
1.49152e-05
8.46957e-06
2.56169e-06
8.94342e-07
6.38521e-07
5.54801e-07
5.40811e-07
1.58592e-06
1.5868e-05
5.05024e-06
1.67936e-05
1.2434e-05
4.55098e-06
1.81585e-06
8.72041e-07
6.78161e-07
7.28765e-07
1.9561e-06
1.33325e-05
0.30503
0.540435
0.509315
0.509186
0.509174
0.50917
0.509176
0.509314
0.540384
0.304494
0.0623031
0.00670297
0.0030419
0.00299568
0.00298888
0.00298969
0.00299887
0.00304256
0.00669178
0.0617609
0.0171363
0.000389763
6.64651e-05
9.56116e-05
8.88605e-05
9.89399e-05
5.3678e-05
7.2635e-05
0.000393792
0.0169827
0.00612415
7.83054e-05
3.2906e-07
4.0298e-07
3.07786e-07
2.92039e-07
1.06902e-05
1.7669e-05
7.96897e-05
0.0060626
0.00268303
4.36578e-05
8.22157e-08
5.56013e-10
4.62946e-10
4.54634e-11
8.54415e-10
9.00251e-06
4.00043e-05
0.00266249
0.0013736
4.03873e-05
8.40745e-08
9.31695e-11
8.40895e-11
1.84082e-11
3.37926e-11
4.53456e-07
3.3813e-05
0.00136838
0.000790879
3.58383e-05
9.54233e-08
8.27136e-11
5.05746e-11
2.18778e-10
1.41127e-10
9.89926e-08
3.24986e-05
0.000791009
0.000497803
2.9659e-05
1.28686e-07
2.37048e-10
1.57527e-10
3.29955e-10
3.06902e-10
5.53557e-08
2.75248e-05
0.00050034
0.000336251
2.56562e-05
1.42377e-07
4.07843e-10
1.2752e-10
1.04292e-09
1.18289e-09
7.24356e-08
2.37041e-05
0.000339291
0.000239615
2.23869e-05
1.80367e-07
8.38882e-10
2.09207e-10
8.40901e-10
1.09883e-09
1.07436e-07
1.93704e-05
0.000242959
0.000178363
1.75682e-05
1.71102e-07
1.18806e-09
2.08277e-10
6.54911e-10
1.07948e-09
1.27752e-07
1.68443e-05
0.000181788
0.00013752
1.56883e-05
1.98274e-07
2.16904e-09
5.20256e-10
7.62991e-10
9.18557e-10
1.44786e-07
1.39666e-05
0.000140929
0.000109097
1.32858e-05
2.12945e-07
3.15845e-09
6.16826e-10
9.12039e-10
1.40642e-09
1.5389e-07
1.17911e-05
0.000112532
8.85901e-05
1.15675e-05
2.52114e-07
4.24264e-09
7.98238e-10
8.65912e-10
1.48257e-09
1.72002e-07
1.03816e-05
9.21506e-05
7.33829e-05
1.0474e-05
2.89253e-07
5.20391e-09
9.11422e-10
1.08867e-09
1.8674e-09
1.52325e-07
9.23267e-06
7.70232e-05
6.1799e-05
9.85173e-06
3.56698e-07
7.59611e-09
1.13144e-09
1.32779e-09
2.43822e-09
1.62097e-07
8.22857e-06
6.57122e-05
5.27582e-05
9.41244e-06
4.07404e-07
9.63898e-09
1.34941e-09
1.55621e-09
2.96593e-09
1.60577e-07
7.29165e-06
5.67931e-05
4.55213e-05
9.21965e-06
4.91449e-07
1.49995e-08
1.69651e-09
1.81866e-09
3.22962e-09
1.52206e-07
6.45548e-06
4.99626e-05
3.96022e-05
9.01922e-06
5.574e-07
2.011e-08
2.10316e-09
1.94296e-09
3.57049e-09
1.38844e-07
5.64651e-06
4.41686e-05
3.46394e-05
9.04312e-06
6.81211e-07
3.13972e-08
2.40541e-09
2.33767e-09
3.97501e-09
1.24006e-07
4.9485e-06
3.97838e-05
3.03912e-05
9.19214e-06
7.88776e-07
4.23872e-08
4.24915e-09
2.40955e-09
4.28406e-09
1.07653e-07
4.27752e-06
3.56793e-05
2.66686e-05
9.52955e-06
1.00535e-06
6.83516e-08
4.93251e-09
3.43493e-09
4.6327e-09
9.20438e-08
3.71541e-06
3.27565e-05
2.33048e-05
9.87562e-06
1.1741e-06
9.55069e-08
1.18208e-08
3.79992e-09
5.14817e-09
7.64522e-08
3.16003e-06
2.9595e-05
2.02734e-05
1.06315e-05
1.56745e-06
1.494e-07
1.5169e-08
5.74362e-09
5.91414e-09
6.28584e-08
2.70876e-06
2.75552e-05
1.73426e-05
1.12638e-05
1.89812e-06
2.35822e-07
3.42706e-08
7.24563e-09
6.64904e-09
5.01375e-08
2.23152e-06
2.48848e-05
1.45787e-05
1.19199e-05
2.53997e-06
3.49076e-07
4.91212e-08
1.37782e-08
8.99483e-09
4.01694e-08
1.87197e-06
2.32595e-05
1.19573e-05
1.21002e-05
3.70096e-06
5.78939e-07
1.07718e-07
1.94895e-08
1.01607e-08
3.27506e-08
1.43946e-06
2.05984e-05
9.43855e-06
1.24566e-05
5.12796e-06
9.32217e-07
1.68243e-07
4.17308e-08
2.11252e-08
3.0882e-08
1.18681e-06
1.89232e-05
7.13749e-06
1.30809e-05
6.8256e-06
1.63711e-06
3.48682e-07
7.16928e-08
2.81701e-08
3.11997e-08
8.2142e-07
1.52355e-05
5.07332e-06
1.3714e-05
8.74004e-06
2.49912e-06
6.40184e-07
1.74232e-07
6.02926e-08
5.07273e-08
8.57117e-07
1.224e-05
0.304954
0.540444
0.509302
0.509165
0.509151
0.50914
0.509168
0.509302
0.540393
0.304419
0.0621673
0.00668237
0.00303555
0.00299566
0.00299046
0.00299798
0.00298992
0.00303717
0.00667694
0.0616286
0.0170435
0.000417978
5.24724e-05
5.4321e-05
4.90026e-05
4.75635e-05
7.5557e-05
7.98121e-05
0.000414162
0.0168944
0.00607499
8.40007e-05
5.91657e-06
1.95029e-07
1.74344e-07
1.76225e-07
2.25864e-07
3.56913e-07
8.39803e-05
0.0060156
0.00265744
4.16874e-05
2.54759e-06
4.82696e-10
1.16048e-09
2.45456e-10
3.65256e-10
8.22113e-08
3.9147e-05
0.00263627
0.00135751
3.48134e-05
2.75026e-07
3.02387e-11
4.34784e-10
2.87223e-13
8.42953e-11
1.27308e-07
3.15787e-05
0.00135267
0.000780608
3.22928e-05
8.58792e-08
4.6639e-10
2.29484e-13
2.84143e-14
5.27619e-11
1.59332e-07
2.93005e-05
0.000781008
0.000491469
3.38126e-05
2.81019e-07
3.67784e-10
1.06341e-12
8.40119e-13
1.71268e-10
1.56791e-07
2.27644e-05
0.000493703
0.000331769
2.93815e-05
3.49188e-07
2.86132e-09
5.47032e-12
1.52066e-12
2.24739e-10
1.49068e-07
2.28259e-05
0.000334702
0.000236599
2.45905e-05
3.52538e-07
2.62526e-09
1.01739e-11
2.3824e-12
2.59622e-10
1.30993e-07
1.87321e-05
0.000239776
0.000176076
1.98216e-05
3.44815e-07
2.24345e-09
9.7053e-12
2.31029e-12
1.91169e-10
1.11349e-07
1.61438e-05
0.000179446
0.000135721
1.68182e-05
3.93763e-07
3.32242e-09
1.68189e-11
3.42228e-12
2.60439e-10
1.18824e-07
1.31716e-05
0.000139191
0.00010762
1.46565e-05
3.77678e-07
4.31369e-09
3.13248e-11
4.13495e-12
3.134e-10
1.21666e-07
1.10875e-05
0.000111088
8.74218e-05
1.30403e-05
3.93634e-07
5.05161e-09
3.19211e-11
4.15518e-12
3.64987e-10
1.13624e-07
9.71616e-06
9.09313e-05
7.24694e-05
1.18337e-05
4.16858e-07
6.47824e-09
1.01267e-10
5.02e-12
3.84578e-10
1.14446e-07
8.59753e-06
7.59507e-05
6.11113e-05
1.09319e-05
4.49833e-07
8.3385e-09
8.78249e-11
8.78544e-12
4.40181e-10
1.16041e-07
7.69338e-06
6.47682e-05
5.22354e-05
1.02266e-05
4.9094e-07
1.13483e-08
2.95953e-10
9.37503e-12
4.70183e-10
1.16203e-07
6.87388e-06
5.59563e-05
4.5131e-05
9.74168e-06
5.46393e-07
1.60004e-08
3.52149e-10
1.91542e-11
5.1091e-10
1.14089e-07
6.16963e-06
4.92274e-05
3.93123e-05
9.40061e-06
6.09962e-07
2.16643e-08
7.0748e-10
2.20685e-11
5.52654e-10
1.14197e-07
5.47739e-06
4.35342e-05
3.44404e-05
9.27717e-06
7.1487e-07
3.43468e-08
9.89452e-10
5.11994e-11
5.46783e-10
1.0819e-07
4.87763e-06
3.92358e-05
3.0257e-05
9.29745e-06
8.05113e-07
4.6181e-08
2.38474e-09
3.56654e-11
5.37221e-10
9.81315e-08
4.25872e-06
3.52138e-05
2.65863e-05
9.57885e-06
1.00734e-06
7.05639e-08
3.13243e-09
2.56283e-10
5.19794e-10
8.6308e-08
3.73723e-06
3.23559e-05
2.32733e-05
9.77278e-06
1.1667e-06
1.02842e-07
8.87633e-09
2.10431e-10
5.33489e-10
7.29539e-08
3.17721e-06
2.92299e-05
2.02733e-05
1.0532e-05
1.54474e-06
1.53076e-07
1.23352e-08
1.6683e-09
5.34175e-10
5.9418e-08
2.72725e-06
2.72316e-05
1.73758e-05
1.11091e-05
1.87256e-06
2.3946e-07
3.02876e-08
2.23136e-09
7.56026e-10
4.68862e-08
2.22508e-06
2.45455e-05
1.46156e-05
1.18712e-05
2.52168e-06
3.51006e-07
4.36257e-08
6.84985e-09
1.13839e-09
3.44421e-08
1.85523e-06
2.29217e-05
1.19729e-05
1.20944e-05
3.68898e-06
5.88029e-07
9.7962e-08
1.13657e-08
2.02736e-09
2.625e-08
1.40888e-06
2.03154e-05
9.39347e-06
1.24269e-05
5.1187e-06
9.44809e-07
1.60192e-07
3.20935e-08
5.40446e-09
1.5142e-08
1.14944e-06
1.84816e-05
7.01134e-06
1.3058e-05
6.81176e-06
1.65329e-06
3.32918e-07
6.13829e-08
7.24538e-09
1.94752e-08
7.765e-07
1.46917e-05
4.78748e-06
1.36407e-05
8.64442e-06
2.47528e-06
6.49684e-07
1.64563e-07
4.92713e-08
2.04095e-08
8.19173e-07
1.26978e-05
0.304953
0.540444
0.509301
0.509173
0.509153
0.509151
0.509166
0.509302
0.54039
0.30442
0.0621673
0.00668694
0.00303744
0.0029888
0.00298876
0.00299057
0.00299364
0.00303561
0.00669177
0.0616313
0.0170423
0.000421792
6.61307e-05
0.000119943
6.16394e-05
5.24559e-05
5.2454e-05
7.75791e-05
0.000392598
0.0168997
0.00607481
8.39711e-05
3.66378e-07
5.95875e-07
1.64704e-07
2.01186e-07
8.83445e-06
3.59258e-07
7.7655e-05
0.00601825
0.0026574
4.18479e-05
4.18239e-08
4.85519e-10
1.60992e-10
2.5236e-10
3.04331e-10
7.38832e-08
3.85522e-05
0.00263741
0.00135717
3.70118e-05
4.8379e-08
1.02148e-10
2.39369e-13
1.63311e-13
6.40741e-12
1.99065e-07
4.04755e-05
0.00135337
0.000780673
3.22689e-05
1.01179e-07
8.57542e-11
7.74889e-14
3.49298e-14
1.66404e-10
2.43455e-07
4.32959e-05
0.000781757
0.000491445
3.41334e-05
1.3053e-07
3.01646e-10
3.63322e-13
1.42934e-12
1.62336e-10
1.49065e-07
3.29904e-05
0.000494172
0.000331835
2.94148e-05
3.40329e-07
3.87455e-10
1.28456e-12
1.1453e-12
3.17574e-10
1.68126e-07
2.87566e-05
0.000335012
0.000236527
2.41837e-05
3.29915e-07
8.42863e-10
1.98831e-12
2.43014e-12
2.25445e-10
1.30705e-07
2.20652e-05
0.000239899
0.000176054
1.94539e-05
3.41916e-07
7.83818e-10
4.12878e-12
3.43882e-12
2.68456e-10
1.24451e-07
1.83198e-05
0.000179443
0.000135707
1.65885e-05
3.31977e-07
2.67747e-09
7.19087e-12
5.02497e-12
3.39914e-10
1.32893e-07
1.4242e-05
0.000139163
0.000107676
1.44685e-05
3.64878e-07
2.97537e-09
2.35759e-11
6.56641e-12
3.82867e-10
1.29686e-07
1.14276e-05
0.00011108
8.74894e-05
1.2901e-05
3.97135e-07
3.82978e-09
3.23667e-11
8.76657e-12
3.6727e-10
1.24495e-07
9.79717e-06
9.09406e-05
7.2528e-05
1.17264e-05
3.9446e-07
5.59447e-09
3.91318e-11
9.88589e-12
4.09486e-10
1.24441e-07
8.63404e-06
7.59826e-05
6.11427e-05
1.081e-05
4.33466e-07
7.20611e-09
1.0744e-10
1.41789e-11
4.45758e-10
1.27764e-07
7.7083e-06
6.48027e-05
5.22536e-05
1.01023e-05
4.77745e-07
9.65884e-09
1.0817e-10
1.51374e-11
4.83645e-10
1.20488e-07
6.87486e-06
5.59869e-05
4.51414e-05
9.64864e-06
5.46387e-07
1.52528e-08
3.46087e-10
2.62872e-11
5.12202e-10
1.222e-07
6.14925e-06
4.925e-05
3.93144e-05
9.28533e-06
6.11621e-07
2.04957e-08
4.31707e-10
3.45143e-11
5.72994e-10
1.17748e-07
5.4345e-06
4.35434e-05
3.44408e-05
9.1635e-06
7.16234e-07
3.15086e-08
1.24236e-09
5.33358e-11
5.49206e-10
1.09343e-07
4.82442e-06
3.9237e-05
3.02536e-05
9.27741e-06
8.24916e-07
4.30791e-08
1.58272e-09
1.0229e-10
5.60401e-10
9.79635e-08
4.20429e-06
3.52097e-05
2.65678e-05
9.40841e-06
1.01731e-06
6.68915e-08
4.26328e-09
2.0234e-10
5.2556e-10
8.56095e-08
3.69174e-06
3.23466e-05
2.3277e-05
9.87323e-06
1.20904e-06
9.78015e-08
5.86036e-09
4.5708e-10
5.58402e-10
7.27055e-08
3.14708e-06
2.9236e-05
2.02427e-05
1.02541e-05
1.55188e-06
1.47075e-07
1.43559e-08
1.02731e-09
5.7852e-10
5.99028e-08
2.71856e-06
2.72546e-05
1.74284e-05
1.13239e-05
1.9107e-06
2.34763e-07
2.18805e-08
1.7489e-09
6.01328e-10
4.81962e-08
2.23313e-06
2.45993e-05
1.46577e-05
1.20964e-05
2.56643e-06
3.46464e-07
4.91905e-08
7.19372e-09
1.15243e-09
3.65791e-08
1.88256e-06
2.30186e-05
1.20101e-05
1.22649e-05
3.80967e-06
5.9067e-07
7.97933e-08
1.10133e-08
1.30063e-09
2.79502e-08
1.44017e-06
2.04997e-05
9.43154e-06
1.25797e-05
5.20313e-06
9.43812e-07
1.67336e-07
3.49557e-08
6.07983e-09
1.82994e-08
1.18941e-06
1.8246e-05
7.04997e-06
1.31395e-05
6.88686e-06
1.62739e-06
3.09943e-07
6.01497e-08
6.50066e-09
1.82001e-08
8.04797e-07
1.52839e-05
4.82406e-06
1.37055e-05
8.71465e-06
2.511e-06
6.1435e-07
1.60356e-07
4.54049e-08
1.76185e-08
8.52287e-07
1.15603e-05
0.305025
0.540438
0.509316
0.509173
0.509166
0.509165
0.509174
0.509312
0.540384
0.304496
0.0622988
0.00669095
0.00304105
0.00300217
0.00299294
0.00299397
0.00300246
0.00304301
0.006693
0.0617627
0.0171293
0.000417928
7.2531e-05
5.40058e-05
5.18984e-05
5.88667e-05
5.08032e-05
6.75302e-05
0.000392402
0.0169856
0.00612202
8.35246e-05
3.71979e-07
1.91745e-07
1.00349e-05
1.75603e-07
1.81171e-07
3.81714e-07
7.93217e-05
0.00606444
0.00268306
4.12253e-05
4.67559e-08
3.16686e-10
3.46846e-09
7.57751e-10
3.36694e-09
5.65163e-08
4.0633e-05
0.00266293
0.00137234
3.64661e-05
9.61228e-08
1.43496e-10
1.92293e-11
2.74161e-11
3.2758e-09
1.39537e-07
3.48357e-05
0.0013683
0.000790312
3.15585e-05
1.02665e-07
2.87621e-10
3.20884e-10
3.10511e-10
1.5532e-09
2.09626e-07
3.16655e-05
0.000791028
0.000497916
3.41448e-05
1.23818e-07
4.64659e-10
3.42685e-10
3.9153e-10
1.3076e-09
1.47003e-07
2.53747e-05
0.000500375
0.000336385
2.93633e-05
2.80719e-07
1.19484e-09
7.44222e-10
7.03521e-10
6.85696e-10
1.65724e-07
2.32225e-05
0.00033928
0.000239821
2.40991e-05
2.2845e-07
1.76202e-09
9.28301e-10
1.18906e-09
4.69055e-10
9.67489e-08
1.87872e-05
0.000243012
0.000178497
1.94386e-05
3.45361e-07
2.32899e-09
1.14322e-09
1.17344e-09
2.87669e-10
1.44682e-07
1.63853e-05
0.000181798
0.000137571
1.64999e-05
3.2205e-07
2.58202e-09
1.51512e-09
1.71434e-09
2.69321e-10
1.63753e-07
1.33099e-05
0.000140919
0.000109097
1.43972e-05
3.68229e-07
4.01728e-09
1.55361e-09
1.85686e-09
8.67166e-10
1.73138e-07
1.11501e-05
0.00011256
8.85931e-05
1.28474e-05
3.88468e-07
4.68009e-09
1.6508e-09
1.8831e-09
1.16477e-09
1.62826e-07
9.67578e-06
9.21966e-05
7.33827e-05
1.167e-05
3.93907e-07
6.22544e-09
1.90706e-09
2.03523e-09
1.77727e-09
1.64596e-07
8.68861e-06
7.70777e-05
6.18022e-05
1.07879e-05
4.31963e-07
8.44482e-09
2.1299e-09
2.25587e-09
2.36136e-09
1.65536e-07
7.85776e-06
6.57671e-05
5.2763e-05
1.01301e-05
4.88545e-07
1.16612e-08
2.47244e-09
2.45454e-09
2.93368e-09
1.61956e-07
7.08955e-06
5.68565e-05
4.55323e-05
9.67018e-06
5.62053e-07
1.74761e-08
2.74337e-09
2.69254e-09
3.34435e-09
1.53639e-07
6.34248e-06
5.0015e-05
3.96147e-05
9.37422e-06
6.37257e-07
2.32301e-08
3.55135e-09
2.90716e-09
3.69085e-09
1.41384e-07
5.60894e-06
4.42362e-05
3.46621e-05
9.2655e-06
7.61073e-07
3.64965e-08
3.776e-09
3.16964e-09
4.11555e-09
1.26415e-07
4.92569e-06
3.98155e-05
3.04125e-05
9.31542e-06
8.66356e-07
4.88635e-08
6.12396e-09
3.41766e-09
4.47082e-09
1.09715e-07
4.25433e-06
3.57179e-05
2.66856e-05
9.47951e-06
1.06376e-06
7.52575e-08
7.19407e-09
4.07128e-09
4.83374e-09
9.37266e-08
3.69001e-06
3.27479e-05
2.33487e-05
9.84064e-06
1.24817e-06
1.06026e-07
1.44604e-08
4.05477e-09
5.39705e-09
7.7312e-08
3.10943e-06
2.95746e-05
2.02726e-05
1.03605e-05
1.59174e-06
1.57686e-07
1.70123e-08
6.55528e-09
5.86288e-09
6.3623e-08
2.66119e-06
2.74957e-05
1.7384e-05
1.10807e-05
1.93334e-06
2.4504e-07
3.68334e-08
7.21737e-09
7.47248e-09
5.04234e-08
2.16538e-06
2.47959e-05
1.46416e-05
1.19216e-05
2.53124e-06
3.58343e-07
4.76452e-08
1.49268e-08
7.59617e-09
4.06475e-08
1.80942e-06
2.31108e-05
1.20345e-05
1.22031e-05
3.83597e-06
5.98662e-07
1.05208e-07
1.78859e-08
1.45261e-08
3.14926e-08
1.37494e-06
2.04249e-05
9.52467e-06
1.25506e-05
5.29284e-06
9.90941e-07
1.6745e-07
4.43093e-08
1.62443e-08
3.22251e-08
1.12618e-06
1.87712e-05
7.2284e-06
1.32617e-05
7.01067e-06
1.695e-06
3.50566e-07
6.91159e-08
3.76374e-08
3.39665e-08
7.86227e-07
1.49395e-05
5.16246e-06
1.39089e-05
8.95675e-06
2.65732e-06
6.79466e-07
1.81066e-07
5.62409e-08
4.60956e-08
7.80395e-07
1.28886e-05
0.305326
0.540652
0.509448
0.509312
0.509301
0.509302
0.509311
0.509457
0.540603
0.304805
0.0627021
0.00675863
0.00309476
0.00304459
0.00303662
0.0030362
0.00304297
0.00308696
0.00673734
0.062162
0.0173629
0.000402734
0.000316021
9.08504e-05
6.85751e-05
8.46802e-05
5.43063e-05
0.000360529
0.000396226
0.0172079
0.00623552
7.89399e-05
0.000121727
3.64903e-07
3.05413e-07
5.00532e-07
5.79546e-06
1.94843e-05
7.8096e-05
0.00617236
0.00273481
5.71154e-05
1.71741e-05
8.58327e-08
7.73282e-08
7.55094e-08
2.49785e-06
3.50549e-06
4.18649e-05
0.0027142
0.00139827
5.07393e-05
1.31774e-06
1.31102e-07
1.74176e-07
1.61917e-07
1.41155e-07
7.89394e-07
4.45543e-05
0.00139404
0.000804791
5.31025e-05
1.71329e-07
2.00371e-07
1.93261e-07
2.15273e-07
6.95999e-08
2.18151e-07
4.38235e-05
0.000805625
0.000506355
4.13529e-05
3.77783e-07
1.91468e-07
1.21612e-07
2.17572e-07
5.22656e-08
1.42006e-07
3.49053e-05
0.00050907
0.000342011
3.57322e-05
4.62523e-07
1.76775e-07
1.67394e-07
1.83907e-07
2.2151e-07
5.89543e-07
2.90613e-05
0.000344514
0.000243598
2.86476e-05
4.58039e-07
1.90493e-07
1.19942e-07
1.95188e-07
1.72588e-07
3.59815e-07
2.33382e-05
0.000246328
0.000181156
2.29271e-05
4.59931e-07
1.84672e-07
1.9319e-07
1.85266e-07
2.13827e-07
3.19255e-07
2.00015e-05
0.000183774
0.000139611
1.79562e-05
4.8033e-07
1.767e-07
2.1248e-07
2.32427e-07
2.0719e-07
3.82915e-07
1.54569e-05
0.000141983
0.000110732
1.51108e-05
4.91503e-07
1.8657e-07
2.29658e-07
2.32569e-07
2.36511e-07
3.66108e-07
1.26252e-05
0.000112948
8.99083e-05
1.30787e-05
5.56945e-07
2.03999e-07
2.23864e-07
2.45211e-07
2.45722e-07
3.63462e-07
1.07861e-05
9.21772e-05
7.44816e-05
1.16087e-05
5.54905e-07
2.0945e-07
2.29124e-07
2.37431e-07
2.66706e-07
3.48e-07
9.514e-06
7.68211e-05
6.27303e-05
1.06088e-05
5.70522e-07
2.1945e-07
2.31465e-07
2.40904e-07
2.83411e-07
3.55052e-07
8.40863e-06
6.53428e-05
5.354e-05
9.88957e-06
6.11752e-07
2.29525e-07
2.41469e-07
2.4722e-07
2.897e-07
3.44235e-07
7.44237e-06
5.63517e-05
4.6193e-05
9.45424e-06
6.63734e-07
2.37659e-07
2.36437e-07
2.43084e-07
2.98909e-07
3.44775e-07
6.56588e-06
4.94418e-05
4.01669e-05
9.15648e-06
7.41432e-07
2.50478e-07
2.38502e-07
2.46338e-07
3.00405e-07
3.34965e-07
5.77032e-06
4.36604e-05
3.51386e-05
9.12248e-06
8.46552e-07
2.6957e-07
2.39795e-07
2.47073e-07
2.98098e-07
3.3106e-07
5.05859e-06
3.92329e-05
3.07993e-05
9.25402e-06
9.4907e-07
2.82097e-07
2.41393e-07
2.48171e-07
3.01704e-07
3.226e-07
4.41718e-06
3.51858e-05
2.69907e-05
9.41203e-06
1.13476e-06
3.10469e-07
2.47391e-07
2.47935e-07
3.03377e-07
3.16937e-07
3.85062e-06
3.22351e-05
2.3569e-05
9.86333e-06
1.33205e-06
3.33544e-07
2.57341e-07
2.49833e-07
3.02724e-07
3.11846e-07
3.33616e-06
2.91504e-05
2.04019e-05
1.04617e-05
1.71128e-06
3.93724e-07
2.69428e-07
2.68301e-07
3.09811e-07
3.14438e-07
2.87801e-06
2.71137e-05
1.74562e-05
1.15833e-05
2.06864e-06
4.84257e-07
3.17222e-07
2.6924e-07
3.24727e-07
3.32346e-07
2.4621e-06
2.45058e-05
1.45545e-05
1.24487e-05
2.93638e-06
6.58366e-07
3.39621e-07
3.22852e-07
3.34578e-07
3.55803e-07
2.07128e-06
2.29311e-05
1.17576e-05
1.29139e-05
4.18961e-06
9.61433e-07
4.45675e-07
3.37764e-07
4.10774e-07
3.799e-07
1.79392e-06
2.04445e-05
9.0277e-06
1.36586e-05
6.18409e-06
1.47462e-06
5.71001e-07
4.45345e-07
4.51019e-07
4.95584e-07
1.45608e-06
1.87493e-05
6.62669e-06
1.50821e-05
8.48939e-06
2.57851e-06
9.45704e-07
5.37167e-07
6.19611e-07
5.73011e-07
1.58396e-06
1.55547e-05
5.05245e-06
1.68396e-05
1.23349e-05
4.51374e-06
1.76113e-06
8.9413e-07
7.30233e-07
7.90132e-07
1.86666e-06
1.29279e-05
0.306657
0.570358
0.540608
0.540392
0.5404
0.5404
0.540393
0.540604
0.57033
0.306163
0.0631828
0.0102771
0.00673966
0.00669198
0.00667741
0.00667653
0.00668539
0.00677406
0.0102293
0.0626491
0.017627
0.000784272
0.000383879
0.000390349
0.000410831
0.000413658
0.000414478
0.000380929
0.000778542
0.017421
0.00635408
0.000325568
7.73358e-05
7.91825e-05
8.39106e-05
8.41127e-05
8.30859e-05
7.74108e-05
0.000289793
0.00625119
0.00278022
0.000259839
4.50113e-05
3.992e-05
3.91002e-05
3.59475e-05
4.00909e-05
6.12155e-05
0.000258757
0.0027451
0.00141503
0.000227714
4.15722e-05
3.39285e-05
3.19765e-05
3.36756e-05
3.36652e-05
5.2174e-05
0.000193085
0.00140429
0.000807635
0.000171009
4.1603e-05
3.39574e-05
3.00485e-05
3.69077e-05
3.10058e-05
5.20353e-05
0.000137644
0.000805082
0.000503066
0.000130965
3.43826e-05
2.86106e-05
2.64217e-05
3.07198e-05
2.42865e-05
3.81702e-05
8.91176e-05
0.000504337
0.000336692
9.82956e-05
2.69213e-05
2.2813e-05
2.37013e-05
2.46358e-05
2.52034e-05
3.24697e-05
7.44147e-05
0.000338731
0.0002378
7.94531e-05
2.43178e-05
2.00054e-05
1.96907e-05
2.11256e-05