/*--------------------------------*- C++ -*----------------------------------*\
| =========                 |                                                 |
| \\      /  F ield         | OpenFOAM: The Open Source CFD Toolbox           |
|  \\    /   O peration     | Version:  4.1                                   |
|   \\  /    A nd           | Web:      www.OpenFOAM.org                      |
|    \\/     M anipulation  |                                                 |
\*---------------------------------------------------------------------------*/
FoamFile
{
    version     2.0;
    format      ascii;
    class       volScalarField;
    location    "900";
    object      k;
}
// * * * * * * * * * * * * * * * * * * * * * * * * * * * * * * * * * * * * * //

dimensions      [0 2 -2 0 0 0 0];

internalField   nonuniform List<scalar> 
12000
(
0.116631
0.114054
0.113762
0.113689
0.113671
0.113671
0.113689
0.113761
0.114055
0.11663
0.0404253
0.0397608
0.0393877
0.0392034
0.0391471
0.0391476
0.0392038
0.0393908
0.0397731
0.0404419
0.0169184
0.0169612
0.0167293
0.0165802
0.016526
0.0165258
0.0165807
0.0167277
0.0169642
0.0169248
0.00837952
0.00855053
0.00843559
0.00833906
0.00829879
0.00829879
0.0083407
0.00843575
0.00855071
0.00838301
0.00476383
0.00492035
0.00487044
0.00481254
0.00478312
0.00478242
0.00481434
0.00487321
0.00492108
0.0047641
0.00301016
0.00312941
0.00312082
0.00308277
0.00305968
0.0030617
0.00308321
0.00312154
0.00312934
0.00301182
0.00206099
0.00215494
0.00216015
0.00213679
0.00211759
0.00211801
0.00213616
0.00216097
0.00215666
0.00206507
0.0015
0.00157936
0.00158801
0.00157074
0.00155828
0.00155803
0.00157226
0.00159001
0.00157754
0.0015054
0.00114335
0.00120715
0.00122367
0.0012096
0.00119894
0.00119982
0.0012116
0.00122514
0.00121187
0.00115092
0.000904658
0.000961282
0.00097586
0.000966714
0.000958646
0.000959868
0.000968773
0.000979053
0.000964692
0.000913311
0.000737132
0.000787996
0.00080308
0.000795507
0.000789304
0.00078999
0.000797817
0.000805843
0.000790736
0.000746825
0.000614982
0.000660833
0.00067606
0.000670281
0.000665405
0.000666125
0.000672584
0.000679138
0.000664063
0.000625896
0.000523085
0.000565048
0.000580234
0.000575751
0.000571946
0.000572713
0.000578137
0.000583846
0.000569073
0.000535437
0.000452039
0.000491042
0.000505979
0.00050272
0.000499767
0.000500697
0.000505424
0.000510345
0.000495844
0.000466029
0.000395787
0.000432665
0.000447176
0.000445001
0.00044278
0.00044384
0.000448062
0.000452555
0.000438406
0.000411749
0.000350225
0.000385555
0.000400166
0.000398693
0.000397136
0.00039841
0.000402231
0.000406304
0.000392489
0.000368496
0.000312531
0.000346919
0.000361868
0.000361017
0.000359955
0.000361306
0.000364854
0.000368847
0.000355538
0.000333722
0.00028063
0.000314532
0.000330022
0.000329854
0.000329327
0.00033097
0.00033434
0.00033809
0.000325311
0.000305273
0.000252989
0.000286859
0.00030314
0.000303729
0.000303661
0.00030534
0.000308684
0.000312738
0.000300736
0.000282168
0.000228376
0.000262867
0.000279918
0.000281421
0.000282018
0.000284166
0.000287487
0.000291497
0.000280343
0.000262917
0.000205773
0.000241342
0.000259617
0.000262119
0.000263188
0.000265539
0.000269149
0.000273812
0.000263982
0.000247557
0.000184188
0.000221453
0.000241419
0.000245208
0.000247093
0.00025033
0.000253982
0.000258718
0.00025017
0.000234543
0.000162656
0.000201884
0.00022466
0.000230038
0.00023243
0.000235948
0.00024039
0.000246339
0.000239725
0.00022495
0.000139934
0.000182063
0.000208448
0.000216236
0.000219986
0.000224629
0.000229188
0.000235459
0.000230602
0.00021671
0.000114672
0.000159965
0.00019212
0.000202875
0.000207316
0.000212584
0.000218743
0.000226991
0.000224526
0.000212135
8.38596e-05
0.000134665
0.000173933
0.00018977
0.000196985
0.000203545
0.000209637
0.000218987
0.000218632
0.000208273
4.68818e-05
0.000102104
0.00015206
0.000173756
0.000183518
0.00019196
0.000200898
0.000213361
0.000215789
0.00020902
3.03174e-05
6.86798e-05
0.000122547
0.000155258
0.000171862
0.000182031
0.000190724
0.000205867
0.000213372
0.000210405
4.00273e-05
5.92838e-05
8.16104e-05
0.000113514
0.000146026
0.000167944
0.000180512
0.000199638
0.000212516
0.000216772
6.561e-05
8.50946e-05
9.0624e-05
9.17998e-05
0.000105789
0.00012563
0.000156323
0.000183612
0.000209073
0.000225907
0.114053
0.0139658
0.0123708
0.0123653
0.0123664
0.0123665
0.0123653
0.0123708
0.0139614
0.114073
0.0397592
0.00183762
0.000958577
0.000947487
0.000944025
0.000948737
0.000944261
0.000957064
0.0018348
0.0397755
0.0169593
0.00153934
0.000539312
0.00047595
0.000498207
0.000473895
0.000495034
0.000517398
0.00153542
0.016995
0.00854846
0.00116174
0.000408713
0.000347876
0.000389646
0.000359186
0.000385705
0.000418746
0.0011588
0.00859285
0.0049182
0.000901122
0.000307571
0.000324308
0.000343599
0.000310731
0.000333718
0.000323258
0.000908455
0.00495472
0.00312682
0.000655836
0.000266506
0.000263817
0.00023936
0.000271393
0.000238096
0.000225669
0.00065552
0.00315166
0.00215226
0.00054983
0.000185535
0.000208695
0.000197703
0.000190301
0.000187673
0.000163618
0.000519532
0.00216899
0.00157657
0.000456824
0.000156163
0.000149696
0.000160314
0.000175332
0.00016557
0.000147749
0.000444759
0.00158438
0.00120408
0.000416419
0.000126866
0.00011166
0.000134815
0.000153192
0.000139073
0.000129432
0.000367424
0.00121663
0.000958015
0.000385973
0.000115829
0.000106586
0.000123491
0.000137263
0.00013116
0.000121751
0.000323951
0.000968533
0.000784396
0.000343415
9.76834e-05
9.62825e-05
0.000115527
0.000126165
0.000117138
0.000110106
0.000294597
0.000794294
0.000656868
0.000293983
7.7749e-05
9.13706e-05
0.000103734
0.000110405
9.88052e-05
0.000101196
0.000264773
0.000667813
0.000560647
0.000258524
7.66597e-05
8.83308e-05
9.12519e-05
9.67775e-05
9.11996e-05
9.5014e-05
0.000234534
0.000573106
0.000486109
0.000231001
7.26877e-05
8.37993e-05
8.33808e-05
8.90218e-05
8.61832e-05
8.96807e-05
0.000207229
0.000500269
0.000427118
0.000208807
7.34991e-05
7.95945e-05
7.90981e-05
8.34068e-05
8.24345e-05
8.40199e-05
0.000183194
0.000442987
0.000379255
0.000188361
7.35544e-05
7.81037e-05
7.69724e-05
7.98843e-05
8.00918e-05
7.91965e-05
0.000162895
0.000397159
0.000339779
0.0001739
7.36574e-05
7.77884e-05
7.40786e-05
7.62679e-05
7.83251e-05
7.47074e-05
0.000147438
0.000359665
0.000306391
0.000158921
7.44882e-05
7.65298e-05
7.21064e-05
7.38131e-05
7.56509e-05
7.11064e-05
0.000134631
0.000329045
0.000277685
0.000151378
7.45482e-05
7.2633e-05
6.89995e-05
6.99196e-05
7.26549e-05
6.7234e-05
0.000125135
0.000303193
0.000252531
0.000151115
7.5477e-05
6.95159e-05
6.52356e-05
6.73335e-05
7.02535e-05
6.51616e-05
0.000117589
0.000282153
0.000230018
0.000151914
7.60783e-05
6.74717e-05
6.30331e-05
6.31265e-05
6.60282e-05
6.22005e-05
0.000110368
0.000263619
0.000209133
0.000153588
8.02687e-05
6.82671e-05
6.31135e-05
6.2353e-05
6.47875e-05
6.10703e-05
0.000104673
0.000248922
0.000189195
0.000155115
8.12504e-05
6.86713e-05
6.36557e-05
6.12642e-05
6.41193e-05
6.15391e-05
9.89768e-05
0.000235258
0.000169377
0.000158901
8.78154e-05
6.96773e-05
6.4469e-05
6.17938e-05
6.39495e-05
6.10922e-05
9.3422e-05
0.000224609
0.000149126
0.000165117
9.83101e-05
7.31261e-05
6.5561e-05
6.20441e-05
6.38716e-05
6.37642e-05
8.73232e-05
0.000213426
0.000126794
0.000172598
0.000115588
7.75114e-05
7.26724e-05
6.64885e-05
6.6995e-05
6.4112e-05
8.46903e-05
0.000205663
0.000102331
0.000186373
0.000134832
8.66069e-05
7.66298e-05
6.87173e-05
6.94656e-05
6.77824e-05
8.44889e-05
0.0001968
7.50914e-05
0.000203577
0.000167176
0.000104758
7.94529e-05
7.5183e-05
7.5542e-05
7.29195e-05
8.88054e-05
0.000192113
5.91671e-05
0.000228774
0.000207104
0.000134964
9.64439e-05
8.27776e-05
8.19532e-05
8.3964e-05
9.66063e-05
0.000181686
6.15431e-05
0.000254258
0.000260845
0.000200554
0.000128915
9.98968e-05
9.59134e-05
9.8581e-05
0.000138209
0.00018246
0.113762
0.0123711
0.0108921
0.0108898
0.0108898
0.0108898
0.0108898
0.0108921
0.0123686
0.113787
0.0393857
0.000952185
0.000321325
0.000314616
0.000313962
0.000314216
0.000314882
0.00032057
0.000955254
0.0394116
0.0167278
0.000575141
1.37579e-06
5.38375e-06
5.28361e-06
4.44367e-06
4.83766e-06
1.75741e-06
0.000544016
0.0167617
0.0084335
0.000436133
1.8625e-08
2.63425e-07
2.30041e-07
2.0138e-07
1.83459e-07
4.43135e-09
0.000406038
0.00847284
0.00487037
0.000375314
6.29259e-07
7.01892e-07
8.8964e-07
8.51289e-07
5.07718e-07
9.70869e-09
0.000346585
0.00489903
0.00311665
0.000248569
1.80985e-06
1.10255e-06
1.18051e-06
1.32548e-06
8.27105e-07
2.51218e-08
0.00026628
0.00313806
0.00215769
0.000214922
1.74459e-06
1.03455e-06
1.07673e-06
1.34541e-06
6.26419e-07
3.82719e-07
0.000178505
0.00217223
0.00158548
0.000167881
1.46293e-06
1.07487e-06
9.65e-07
1.25767e-06
8.69638e-07
1.16039e-06
0.000150863
0.00159638
0.00121959
0.000147768
1.55616e-06
8.84572e-07
8.98617e-07
1.21687e-06
8.75241e-07
1.14453e-06
0.000121166
0.00122978
0.000973061
0.000130791
1.72211e-06
9.80257e-07
1.0163e-06
1.33952e-06
8.72883e-07
1.45679e-06
0.000107803
0.000981567
0.000799395
0.000119445
1.79112e-06
1.07727e-06
1.00008e-06
1.34204e-06
1.28368e-06
1.62273e-06
8.53838e-05
0.000807516
0.000672145
0.000111287
1.89861e-06
1.16064e-06
1.02481e-06
1.3631e-06
1.26353e-06
1.80039e-06
7.81132e-05
0.000680239
0.00057585
0.000106532
2.21199e-06
1.30323e-06
1.18125e-06
1.5051e-06
1.43218e-06
2.06085e-06
7.14318e-05
0.000584122
0.000501244
0.000102761
2.76632e-06
1.76321e-06
1.26897e-06
1.63486e-06
1.74992e-06
2.4774e-06
6.91236e-05
0.000510047
0.000442092
0.000100306
3.80295e-06
2.18533e-06
1.47443e-06
1.85374e-06
2.25766e-06
2.99007e-06
6.70358e-05
0.000451579
0.000394219
9.85842e-05
4.67872e-06
2.47e-06
1.62935e-06
2.09967e-06
2.6862e-06
3.24867e-06
6.52616e-05
0.000405221
0.000354696
9.61992e-05
5.68035e-06
2.7049e-06
1.78333e-06
2.28868e-06
3.09177e-06
3.67074e-06
6.39082e-05
0.000366983
0.000321411
9.49781e-05
7.07812e-06
3.11924e-06
2.09444e-06
2.49782e-06
3.40319e-06
3.89901e-06
6.11694e-05
0.000336337
0.000292909
9.69552e-05
8.37183e-06
3.51281e-06
2.33047e-06
2.61305e-06
3.54785e-06
4.17263e-06
5.75602e-05
0.000309532
0.000267813
9.87841e-05
1.05788e-05
3.74651e-06
2.48506e-06
2.74701e-06
3.71705e-06
4.29817e-06
5.4085e-05
0.000288398
0.000245557
0.000106537
1.28703e-05
4.36367e-06
2.7583e-06
2.96511e-06
3.79502e-06
4.30918e-06
4.98707e-05
0.000268213
0.000224978
0.000109856
1.53498e-05
5.13744e-06
2.97545e-06
3.12644e-06
3.96151e-06
4.41553e-06
4.63467e-05
0.000253248
0.000205479
0.000110135
1.82242e-05
5.76191e-06
3.27813e-06
3.19359e-06
4.01772e-06
4.65429e-06
4.20693e-05
0.000236962
0.00018643
0.000113212
2.17655e-05
7.60574e-06
4.21758e-06
3.88344e-06
4.34543e-06
4.61256e-06
3.83619e-05
0.000225988
0.000167677
0.000124181
2.64494e-05
7.97364e-06
4.83159e-06
4.12613e-06
4.49257e-06
5.23517e-06
3.40292e-05
0.000211566
0.000148579
0.000133591
3.56747e-05
9.87012e-06
6.2494e-06
5.51584e-06
5.12544e-06
5.55635e-06
3.02451e-05
0.000202834
0.000129028
0.000142179
5.38271e-05
1.33675e-05
7.04332e-06
6.23873e-06
5.76568e-06
5.47436e-06
2.59653e-05
0.000187856
0.000108415
0.000154078
7.84673e-05
2.05124e-05
8.2199e-06
6.33772e-06
6.93555e-06
6.22376e-06
2.25531e-05
0.000178818
8.84324e-05
0.000171059
0.000109583
3.50188e-05
1.31069e-05
8.26796e-06
7.7866e-06
7.35258e-06
1.97607e-05
0.000156568
7.37576e-05
0.000191132
0.000151387
6.38452e-05
2.40777e-05
1.17028e-05
9.05106e-06
8.9778e-06
2.18063e-05
0.000143946
0.113688
0.0123657
0.0108898
0.0108877
0.0108877
0.0108877
0.0108875
0.0108898
0.0123632
0.113715
0.0392017
0.000944298
0.000314806
0.00031204
0.00031139
0.00031146
0.000311248
0.000314943
0.000942843
0.0392266
0.0165785
0.000512845
4.93117e-06
3.26596e-06
3.43302e-06
3.23418e-06
5.49069e-06
4.60385e-06
0.00050424
0.0166097
0.00833738
0.000390134
2.37639e-07
1.59119e-08
2.06039e-08
9.2522e-09
2.04614e-09
6.09624e-09
0.00037081
0.008372
0.0048088
0.00031135
9.19585e-07
1.66557e-10
1.75923e-10
1.46062e-11
2.60914e-13
2.01115e-08
0.000287825
0.00483573
0.00307872
0.000219527
8.64198e-07
1.16637e-09
2.51056e-10
5.03855e-10
1.40197e-10
9.46089e-08
0.000246639
0.00309737
0.00213134
0.000148537
6.94233e-07
2.57729e-09
1.3192e-09
1.67031e-09
7.50412e-10
2.8337e-07
0.000180096
0.00214579
0.00156726
0.000136882
5.97688e-07
3.10811e-09
1.68563e-09
4.62391e-09
1.92092e-09
3.65524e-07
0.000135138
0.00157866
0.00120651
0.000128526
7.07935e-07
4.66838e-09
2.31332e-09
2.55718e-09
1.99317e-09
5.69362e-07
0.000104254
0.00121634
0.000962462
0.000103534
9.8653e-07
6.14966e-09
2.19972e-09
3.19697e-09
3.17854e-09
5.41261e-07
9.32617e-05
0.000972964
0.000791328
9.65216e-05
9.40414e-07
1.008e-08
4.30708e-09
4.56718e-09
3.80507e-09
7.01015e-07
8.81267e-05
0.000801559
0.00066538
9.28443e-05
1.12106e-06
1.66659e-08
3.75083e-09
5.56897e-09
6.68502e-09
1.02693e-06
8.35849e-05
0.000676342
0.000570289
9.07661e-05
1.30548e-06
2.00296e-08
4.10904e-09
5.79657e-09
8.39838e-09
1.28155e-06
8.11455e-05
0.000582379
0.000496383
8.53672e-05
1.88585e-06
3.13028e-08
5.15698e-09
7.03705e-09
1.21907e-08
1.40668e-06
7.68165e-05
0.00050981
0.000437891
8.58766e-05
2.38564e-06
3.86361e-08
6.76e-09
9.7847e-09
1.77504e-08
1.60758e-06
7.60162e-05
0.00045224
0.000390397
8.47944e-05
3.28418e-06
6.88845e-08
9.20102e-09
1.26574e-08
2.61171e-08
1.6562e-06
7.32314e-05
0.000406661
0.00035124
8.60965e-05
4.02728e-06
9.69127e-08
1.19491e-08
1.53106e-08
3.38981e-08
1.7781e-06
6.89788e-05
0.000368865
0.000318305
8.8098e-05
5.26241e-06
1.66033e-07
1.70081e-08
1.96759e-08
4.25799e-08
1.77686e-06
6.41535e-05
0.000338662
0.000290055
9.1593e-05
6.23696e-06
2.35527e-07
2.4801e-08
2.38385e-08
4.70286e-08
1.71436e-06
5.84929e-05
0.000311993
0.000265319
9.48244e-05
7.96717e-06
3.73711e-07
3.44522e-08
2.82603e-08
5.53289e-08
1.60294e-06
5.32648e-05
0.000291072
0.000243171
9.98482e-05
9.48262e-06
5.3292e-07
6.08183e-08
3.76759e-08
5.91202e-08
1.45995e-06
4.78233e-05
0.000270796
0.000222954
0.000106644
1.24726e-05
8.54224e-07
7.98907e-08
4.70841e-08
6.70228e-08
1.29131e-06
4.30177e-05
0.000255839
0.000203912
0.000113502
1.49753e-05
1.24848e-06
1.60707e-07
5.21086e-08
7.39169e-08
1.10481e-06
3.8048e-05
0.000239199
0.000185767
0.000125315
2.00303e-05
2.02346e-06
2.24372e-07
8.85601e-08
9.22603e-08
9.2902e-07
3.36794e-05
0.000228064
0.000167931
0.000132641
2.53908e-05
3.18038e-06
4.93936e-07
1.16197e-07
9.42292e-08
7.58226e-07
2.89067e-05
0.000213014
0.000149679
0.000134681
3.33555e-05
4.85704e-06
6.95371e-07
2.36141e-07
1.71193e-07
6.2425e-07
2.48055e-05
0.000203829
0.000131287
0.000138275
4.8279e-05
7.79844e-06
1.46351e-06
2.91439e-07
1.84127e-07
5.11881e-07
1.976e-05
0.000187588
0.000112221
0.000142636
6.61418e-05
1.31872e-05
2.34815e-06
5.88721e-07
3.56624e-07
4.12826e-07
1.6129e-05
0.000177202
9.32675e-05
0.00015286
8.74601e-05
2.26178e-05
5.02516e-06
1.01157e-06
3.84755e-07
5.59967e-07
1.11347e-05
0.000152468
7.42885e-05
0.000161118
0.000113082
3.49254e-05
9.15151e-06
2.51029e-06
8.60079e-07
5.94666e-07
9.58521e-06
0.000138332
0.11367
0.0123669
0.0108898
0.0108875
0.0108875
0.0108874
0.0108877
0.0108898
0.0123644
0.113697
0.039146
0.000949282
0.000314057
0.000310243
0.000309405
0.000308542
0.000311157
0.000314372
0.000946282
0.0391705
0.0165232
0.000476368
5.95598e-06
5.33796e-06
5.79356e-06
5.84154e-06
3.91674e-06
4.23184e-06
0.000478701
0.0165538
0.00829579
0.000360667
9.75204e-09
8.80187e-08
7.91039e-08
9.8442e-08
3.26927e-08
1.71858e-07
0.000347915
0.00832896
0.0047778
0.000284523
2.80459e-08
9.0594e-11
9.16166e-12
5.36046e-10
2.21139e-10
6.0693e-07
0.000275238
0.00480415
0.00305684
0.000246965
2.11464e-07
8.89399e-11
1e-15
1.33197e-12
1.06085e-09
1.01174e-06
0.000245661
0.00307402
0.00211456
0.000183824
9.04222e-07
4.82719e-09
7.11215e-14
8.30535e-13
6.77976e-10
6.64803e-07
0.000183432
0.00212805
0.00155227
0.000141695
1.12394e-06
7.35636e-09
1.30024e-11
1.86219e-12
4.57205e-10
4.95933e-07
0.000128448
0.00156491
0.00119464
0.000138702
1.29235e-06
5.48481e-09
1.09495e-11
1.67211e-12
5.88342e-10
5.39947e-07
0.00012291
0.00120499
0.00095375
0.000126358
1.70955e-06
1.09289e-08
3.91144e-11
4.46385e-12
1.84617e-09
8.51535e-07
0.00010523
0.000964277
0.000783701
0.000115871
2.04201e-06
1.44131e-08
4.64182e-11
1.46036e-11
1.24395e-09
7.38731e-07
9.00018e-05
0.000794627
0.000659237
0.000109312
2.33703e-06
2.4011e-08
1.48878e-10
1.59098e-11
1.53825e-09
8.03986e-07
8.2407e-05
0.000670873
0.000565144
0.000104261
2.59544e-06
2.77781e-08
1.55483e-10
2.83801e-11
2.20169e-09
8.49931e-07
7.65886e-05
0.000577371
0.000492162
0.000100273
3.15224e-06
4.82377e-08
5.39e-10
2.92833e-11
2.77096e-09
9.21768e-07
7.27193e-05
0.000505329
0.000434283
9.76789e-05
3.70711e-06
5.16832e-08
5.6937e-10
3.93136e-11
3.49209e-09
1.03e-06
7.0461e-05
0.000448094
0.000387509
9.59779e-05
4.30436e-06
1.09127e-07
1.56381e-09
6.36792e-11
4.78945e-09
1.21336e-06
6.86088e-05
0.000402792
0.000348934
9.52595e-05
4.94018e-06
1.30906e-07
2.24207e-09
8.86816e-11
5.65058e-09
1.34719e-06
6.58034e-05
0.00036524
0.000316505
9.54654e-05
5.74148e-06
1.89779e-07
3.45699e-09
1.66122e-10
6.70974e-09
1.4836e-06
6.2684e-05
0.000335294
0.00028864
9.63983e-05
6.63249e-06
2.6988e-07
7.50628e-09
3.14293e-10
7.05384e-09
1.45749e-06
5.84749e-05
0.000308914
0.0002643
9.89418e-05
8.22504e-06
4.00928e-07
1.22073e-08
5.2203e-10
7.93915e-09
1.40768e-06
5.42824e-05
0.00028831
0.000242461
0.000101679
9.55404e-06
5.55567e-07
2.81955e-08
8.7361e-10
7.98976e-09
1.31215e-06
4.91317e-05
0.000268328
0.00022247
0.000107229
1.25122e-05
8.88972e-07
4.39493e-08
3.19075e-09
7.97391e-09
1.1836e-06
4.44876e-05
0.000253707
0.00020374
0.000114248
1.51549e-05
1.29664e-06
1.00856e-07
3.5012e-09
8.08727e-09
1.01809e-06
3.8927e-05
0.000237223
0.000185656
0.000122402
2.0033e-05
2.0163e-06
1.6518e-07
1.53036e-08
7.61964e-09
8.4588e-07
3.42795e-05
0.000226296
0.00016821
0.000138226
2.58326e-05
3.24483e-06
3.86145e-07
2.74646e-08
1.06205e-08
6.73151e-07
2.87696e-05
0.000211299
0.000150024
0.000137764
3.39629e-05
4.99961e-06
6.07158e-07
9.47766e-08
1.7497e-08
5.10341e-07
2.44324e-05
0.000201817
0.000131489
0.000139619
4.90731e-05
8.25937e-06
1.30601e-06
1.5019e-07
2.91503e-08
3.78048e-07
1.91351e-05
0.0001861
0.000112028
0.000143537
6.66172e-05
1.36645e-05
2.31381e-06
4.42147e-07
4.58322e-08
2.5694e-07
1.54112e-05
0.000174553
9.23535e-05
0.000152694
8.68693e-05
2.31186e-05
4.99579e-06
9.37092e-07
2.09959e-07
2.27163e-07
1.05397e-05
0.000152143
7.17408e-05
0.000159443
0.000111579
3.42518e-05
9.42469e-06
2.48183e-06
5.71107e-07
3.77211e-07
8.99778e-06
0.000127442
0.11367
0.0123668
0.0108898
0.0108877
0.0108876
0.0108875
0.0108876
0.0108898
0.0123643
0.113697
0.039146
0.000949162
0.000314049
0.000311774
0.000309771
0.000309491
0.0003105
0.000314524
0.000942299
0.03917
0.0165233
0.000471408
4.91392e-06
2.72833e-06
4.69354e-06
5.45e-06
5.54423e-06
4.34555e-06
0.000504391
0.0165538
0.00829579
0.000360841
2.15027e-07
8.8855e-09
4.88561e-08
8.7235e-08
2.00974e-09
1.09374e-07
0.000392498
0.00832976
0.00477871
0.000295314
7.44291e-07
5.94732e-11
8.22124e-11
2.09626e-10
1.39812e-12
7.75931e-07
0.000340791
0.0048048
0.00305584
0.000209993
1.10162e-06
3.7669e-10
1.66701e-13
6.04111e-13
2.93867e-11
7.74935e-07
0.000238678
0.00307463
0.00211429
0.000158875
1.14011e-06
1.53772e-09
1.52774e-12
5.08537e-13
1.19504e-09
1.06557e-06
0.000192699
0.00212696
0.00155248
0.000126588
1.14362e-06
3.04446e-09
8.34747e-12
1.32799e-11
9.66532e-10
6.42348e-07
0.000154323
0.00156517
0.00119451
0.000116232
9.97632e-07
3.50248e-09
1.22228e-11
1.87365e-11
1.43299e-09
1.31625e-06
0.000137516
0.00120506
0.000953498
0.00011326
1.07529e-06
2.95492e-09
1.48314e-11
1.46179e-11
2.47603e-09
1.14831e-06
0.000114731
0.000964697
0.000783536
0.000110274
1.30241e-06
7.99351e-09
3.58894e-11
2.28456e-11
1.41365e-09
9.38474e-07
9.28609e-05
0.000795031
0.000659089
0.000106941
1.73403e-06
8.54901e-09
4.09415e-11
2.82127e-11
1.86325e-09
9.31829e-07
8.38063e-05
0.00067106
0.000565152
0.000102231
2.25177e-06
1.40296e-08
9.79335e-11
4.29047e-11
2.31389e-09
9.82737e-07
7.79655e-05
0.000577378
0.000492259
9.83271e-05
2.77383e-06
2.42104e-08
1.08744e-10
6.55133e-11
3.1183e-09
1.06273e-06
7.42201e-05
0.000505319
0.000434427
9.61363e-05
3.17366e-06
4.08252e-08
3.92791e-10
9.84642e-11
3.89039e-09
1.17764e-06
7.1621e-05
0.000448141
0.000387627
9.39115e-05
3.95984e-06
6.54616e-08
5.55072e-10
1.43514e-10
4.60287e-09
1.30105e-06
6.93897e-05
0.000402893
0.000349022
9.36253e-05
4.60613e-06
9.62678e-08
1.78003e-09
1.74611e-10
5.60554e-09
1.39959e-06
6.59222e-05
0.000365362
0.000316535
9.36061e-05
5.66869e-06
1.54995e-07
2.39292e-09
2.89714e-10
6.29545e-09
1.50143e-06
6.21552e-05
0.000335408
0.000288696
9.55477e-05
6.84071e-06
2.25231e-07
6.49572e-09
2.6277e-10
7.16193e-09
1.473e-06
5.74944e-05
0.000308985
0.000264274
9.73084e-05
8.38954e-06
3.78168e-07
1.08389e-08
7.5197e-10
7.51954e-09
1.40522e-06
5.32262e-05
0.000288325
0.000242482
0.000100596
1.02311e-05
5.50891e-07
2.91012e-08
1.52142e-09
7.62489e-09
1.29761e-06
4.81926e-05
0.000268313
0.000222404
0.000103555
1.27859e-05
8.89727e-07
4.4692e-08
2.91785e-09
7.59547e-09
1.16491e-06
4.38531e-05
0.000253637
0.000203671
0.0001124
1.58725e-05
1.34395e-06
1.16386e-07
5.02302e-09
8.22832e-09
1.0231e-06
3.87137e-05
0.000237192
0.000185567
0.000119712
1.97173e-05
2.01144e-06
1.68299e-07
2.00261e-08
8.89034e-09
8.65257e-07
3.45402e-05
0.000226303
0.000168068
0.000134617
2.67667e-05
3.29478e-06
4.29136e-07
3.25547e-08
8.94311e-09
7.26092e-07
2.93726e-05
0.000211504
0.00015024
0.000139782
3.60077e-05
5.01169e-06
6.2069e-07
1.04899e-07
2.09691e-08
5.62083e-07
2.53884e-05
0.000202065
0.000131742
0.000140754
4.98853e-05
8.16886e-06
1.42128e-06
1.66775e-07
4.08944e-08
4.48195e-07
1.99892e-05
0.000187052
0.000112363
0.000145297
6.75596e-05
1.29879e-05
2.21371e-06
4.61923e-07
7.65762e-08
2.94412e-07
1.64341e-05
0.000175147
9.27024e-05
0.000153428
8.78272e-05
2.27315e-05
4.81598e-06
8.52422e-07
1.20757e-07
2.60959e-07
1.11222e-05
0.000151469
7.2121e-05
0.000160006
0.000112678
3.42923e-05
8.82814e-06
2.30721e-06
5.74145e-07
3.40703e-07
9.57445e-06
0.000135824
0.113688
0.0123657
0.0108898
0.0108875
0.0108876
0.0108876
0.0108875
0.0108898
0.0123632
0.113715
0.0392023
0.000948817
0.000315042
0.000310866
0.000310551
0.000310515
0.000310825
0.000314849
0.000942671
0.0392261
0.0165777
0.000475727
4.60753e-06
5.40019e-06
5.60525e-06
4.87346e-06
5.72871e-06
4.84432e-06
0.000505644
0.016608
0.00833701
0.000360895
1.92362e-07
8.78862e-08
2.17949e-09
5.67182e-08
7.879e-08
9.67511e-08
0.000374835
0.00837032
0.00480965
0.000304091
6.62851e-07
4.85341e-10
7.43628e-14
1.68915e-11
1.31502e-11
6.40959e-07
0.000290352
0.0048347
0.00307878
0.00021177
9.52044e-07
1.00616e-09
1.32722e-10
2.18994e-10
5.82414e-12
8.32559e-07
0.000245882
0.00309675
0.00213213
0.000168658
1.03277e-06
3.49009e-09
1.15471e-09
1.74036e-09
4.34564e-11
7.74109e-07
0.000187203
0.0021451
0.00156645
0.000136267
1.03288e-06
5.75131e-09
2.04148e-09
9.09149e-10
9.96684e-11
8.0278e-07
0.000154027
0.00157913
0.00120562
0.000117749
9.40381e-07
5.05139e-09
3.00664e-09
5.36341e-09
2.71358e-10
9.05461e-07
0.000139701
0.00121647
0.000962613
0.000114877
1.11078e-06
7.2791e-09
4.38324e-09
6.09967e-09
6.44642e-10
1.14405e-06
0.000114027
0.000973558
0.000790982
0.000110674
1.25723e-06
4.30727e-09
6.17669e-09
7.50964e-09
2.29887e-09
1.03871e-06
9.09443e-05
0.000802098
0.000665253
0.000105212
1.60269e-06
6.76811e-09
7.56829e-09
8.2761e-09
2.75075e-09
1.11279e-06
8.66599e-05
0.000676865
0.00057021
9.9541e-05
2.18645e-06
1.88984e-08
9.56914e-09
1.06501e-08
7.67444e-09
1.30527e-06
8.32605e-05
0.000582515
0.000496469
9.57093e-05
2.53139e-06
2.90062e-08
1.23959e-08
1.40144e-08
9.98665e-09
1.45917e-06
7.93427e-05
0.000510034
0.000437899
9.27202e-05
3.22482e-06
5.07092e-08
1.71144e-08
1.91657e-08
1.53667e-08
1.60472e-06
7.62647e-05
0.000452463
0.000390489
9.2352e-05
3.79116e-06
7.45993e-08
2.16798e-08
2.33027e-08
2.04992e-08
1.73474e-06
7.33318e-05
0.000406851
0.000351352
9.20932e-05
4.68706e-06
1.13803e-07
2.74066e-08
2.86373e-08
3.07e-08
1.84604e-06
6.89534e-05
0.000369093
0.000318417
9.23766e-05
5.74048e-06
1.76684e-07
3.49139e-08
3.23691e-08
3.74325e-08
1.8079e-06
6.38691e-05
0.000338838
0.000290166
9.40442e-05
7.17302e-06
2.60286e-07
3.93589e-08
4.15604e-08
4.63052e-08
1.71544e-06
5.84649e-05
0.000312263
0.000265438
9.6267e-05
9.15273e-06
4.55807e-07
6.27825e-08
4.39012e-08
5.35175e-08
1.57736e-06
5.2676e-05
0.000291233
0.000243318
9.97302e-05
1.07566e-05
6.32784e-07
7.19814e-08
5.89266e-08
5.98928e-08
1.41167e-06
4.69622e-05
0.000270992
0.000223012
0.000104252
1.34561e-05
1.01888e-06
1.30984e-07
6.56497e-08
6.90072e-08
1.2439e-06
4.19554e-05
0.000255873
0.000204044
0.00011132
1.61378e-05
1.42797e-06
1.54939e-07
7.17632e-08
8.14659e-08
1.05285e-06
3.65426e-05
0.000239149
0.000185778
0.000118267
2.06826e-05
2.21705e-06
3.02406e-07
7.62808e-08
8.04221e-08
9.01492e-07
3.23965e-05
0.000227803
0.000167872
0.000127429
2.55658e-05
3.37181e-06
4.01149e-07
1.20962e-07
1.24155e-07
7.2803e-07
2.72766e-05
0.000212693
0.000149856
0.000134652
3.49184e-05
5.1719e-06
8.03456e-07
1.45119e-07
1.3378e-07
6.13206e-07
2.33917e-05
0.000202925
0.00013164
0.000139792
5.05261e-05
8.49206e-06
1.28275e-06
2.9063e-07
2.04447e-07
4.76654e-07
1.831e-05
0.000187146
0.000112752
0.000145205
6.90826e-05
1.41215e-05
2.65556e-06
4.89268e-07
2.3183e-07
4.62337e-07
1.49785e-05
0.000174714
9.39484e-05
0.000155253
9.04468e-05
2.40195e-05
4.99991e-06
1.19092e-06
4.65125e-07
4.56781e-07
1.05531e-05
0.000153893
7.51334e-05
0.0001637
0.000116113
3.72724e-05
1.01015e-05
2.59832e-06
8.04738e-07
6.25393e-07
8.90647e-06
0.00012921
0.113761
0.0123711
0.010892
0.0108898
0.0108898
0.0108898
0.0108897
0.0108922
0.0123687
0.113787
0.0393891
0.000958037
0.000320154
0.000314947
0.000314289
0.000314569
0.000314679
0.000321631
0.000956747
0.039413
0.016725
0.000515571
1.69786e-06
3.8404e-06
4.76167e-06
4.06513e-06
5.79146e-06
1.55412e-06
0.000522287
0.016756
0.0084325
0.00042412
7.54838e-09
1.49726e-07
1.2806e-07
7.8741e-08
9.95645e-09
1.18119e-08
0.000412824
0.00846694
0.00486896
0.000321687
1.18867e-08
6.24418e-07
6.68955e-07
9.57574e-07
4.02968e-08
6.15487e-08
0.000347862
0.00489474
0.00311742
0.000246344
1.2976e-07
8.89473e-07
8.80362e-07
7.71638e-07
2.89836e-07
3.79202e-07
0.000283961
0.00313501
0.00215677
0.000216028
1.3497e-06
9.05597e-07
8.66725e-07
1.20588e-06
5.23807e-07
1.27588e-06
0.000216614
0.00217067
0.00158584
0.000176766
1.46927e-06
6.59416e-07
8.87531e-07
7.5151e-07
5.66198e-07
2.169e-06
0.000179928
0.00159669
0.00121893
0.000161526
1.88331e-06
8.84972e-07
9.32337e-07
1.81877e-06
7.40931e-07
1.63031e-06
0.00014737
0.00122893
0.000973361
0.000137122
2.5352e-06
9.8626e-07
1.21417e-06
1.79152e-06
8.2316e-07
1.71137e-06
0.000135619
0.000981819
0.00079976
0.000120981
2.71124e-06
1.07161e-06
1.36157e-06
1.54528e-06
1.14614e-06
1.83685e-06
0.000116405
0.000807658
0.000672365
0.000113786
3.04856e-06
1.19677e-06
1.54426e-06
1.6327e-06
1.44129e-06
1.8876e-06
9.70517e-05
0.000680273
0.000576215
0.000105229
3.65936e-06
1.30407e-06
1.70808e-06
1.7067e-06
1.92727e-06
2.30164e-06
8.8035e-05
0.000584161
0.000501612
9.7902e-05
4.15176e-06
1.49216e-06
1.94193e-06
1.92995e-06
2.25097e-06
2.90445e-06
8.231e-05
0.000510214
0.000442406
9.23085e-05
4.73979e-06
1.7006e-06
2.22674e-06
2.20256e-06
2.75368e-06
3.40879e-06
7.8218e-05
0.000451786
0.000394517
9.23359e-05
5.53649e-06
2.04073e-06
2.48231e-06
2.51047e-06
3.10275e-06
3.69996e-06
7.35807e-05
0.000405464
0.000354946
9.19786e-05
6.18343e-06
2.30526e-06
2.71733e-06
2.73764e-06
3.39365e-06
4.02092e-06
6.89112e-05
0.000367261
0.000321614
9.16584e-05
7.27958e-06
2.62815e-06
2.89119e-06
3.01672e-06
3.58258e-06
4.09854e-06
6.38056e-05
0.000336559
0.000293
9.3307e-05
8.15013e-06
2.96361e-06
3.09727e-06
3.23889e-06
3.77754e-06
4.43869e-06
5.87184e-05
0.000309789
0.000267918
9.54481e-05
9.79323e-06
3.67093e-06
3.16794e-06
3.29212e-06
3.98633e-06
4.2777e-06
5.37463e-05
0.000288522
0.000245512
0.000100151
1.12908e-05
3.9833e-06
3.49944e-06
3.61313e-06
4.03334e-06
4.59406e-06
4.89377e-05
0.000268372
0.000224776
0.000103918
1.37206e-05
3.9937e-06
3.70379e-06
3.72397e-06
4.42683e-06
4.6903e-06
4.45113e-05
0.00025319
0.000205389
0.000111426
1.68853e-05
4.4786e-06
3.89648e-06
3.73671e-06
4.5728e-06
4.79838e-06
4.0008e-05
0.000236788
0.000186505
0.000121116
2.09938e-05
5.31941e-06
3.95922e-06
4.37275e-06
4.73207e-06
4.99008e-06
3.61172e-05
0.000225626
0.000168182
0.000136489
2.90875e-05
6.93735e-06
5.08218e-06
4.69518e-06
4.84037e-06
5.19598e-06
3.16366e-05
0.000210902
0.000149315
0.000142807
4.11747e-05
9.52259e-06
5.15597e-06
4.71069e-06
5.61293e-06
5.53892e-06
2.79895e-05
0.000201854
0.000129685
0.000148042
5.62683e-05
1.40586e-05
6.3676e-06
5.17907e-06
5.70575e-06
5.88916e-06
2.42602e-05
0.000186259
0.000108869
0.000157436
7.96046e-05
2.08072e-05
8.57611e-06
6.29853e-06
6.7647e-06
7.34374e-06
2.08937e-05
0.00017728
8.87255e-05
0.000172278
0.000108038
3.46291e-05
1.32973e-05
8.39685e-06
7.60353e-06
7.80804e-06
1.90658e-05
0.000154493
7.40124e-05
0.000191006
0.000149698
6.05748e-05
2.41769e-05
1.30547e-05
1.00461e-05
9.38062e-06
2.12597e-05
0.00014074
0.114054
0.0139622
0.012369
0.0123636
0.0123647
0.0123647
0.0123636
0.0123689
0.0139599
0.114079
0.0397713
0.00183617
0.000955578
0.000943369
0.000946826
0.000947372
0.000946798
0.000951141
0.00183792
0.0397941
0.0169614
0.00153993
0.00054521
0.000511039
0.000484679
0.000478957
0.000479215
0.000547832
0.00152864
0.0170081
0.00854712
0.00116072
0.000411886
0.000378115
0.000352261
0.000365849
0.000354208
0.000444101
0.00120299
0.00860846
0.00491547
0.000866085
0.000313269
0.000292203
0.000278504
0.00034438
0.000278982
0.000328458
0.000853056
0.0049616
0.0031249
0.000651451
0.000249438
0.000251655
0.000247264
0.00023595
0.000245711
0.000263741
0.000656273
0.00315884
0.00215212
0.000515952
0.000181667
0.000187126
0.000181139
0.000188899
0.000184551
0.000211967
0.000500999
0.00217491
0.00157364
0.000429839
0.000152218
0.000137768
0.000136096
0.000142994
0.00012978
0.000163119
0.000407963
0.00159142
0.00120578
0.000386372
0.000130144
0.000133685
0.000106516
0.000140772
0.000124787
0.000141389
0.000370513
0.00121657
0.000958359
0.000352758
0.000123014