/*--------------------------------*- C++ -*----------------------------------*\
| =========                 |                                                 |
| \\      /  F ield         | OpenFOAM: The Open Source CFD Toolbox           |
|  \\    /   O peration     | Version:  4.1                                   |
|   \\  /    A nd           | Web:      www.OpenFOAM.org                      |
|    \\/     M anipulation  |                                                 |
\*---------------------------------------------------------------------------*/
FoamFile
{
    version     2.0;
    format      ascii;
    class       volScalarField;
    location    "900";
    object      nut;
}
// * * * * * * * * * * * * * * * * * * * * * * * * * * * * * * * * * * * * * //

dimensions      [0 2 -1 0 0 0 0];

internalField   nonuniform List<scalar> 
12000
(
0.00384217
0.00381999
0.00381472
0.00381358
0.00381331
0.00381333
0.00381364
0.00381473
0.00381782
0.00383952
0.0022545
0.00225061
0.00222599
0.00222008
0.00221837
0.00221851
0.00222008
0.00222697
0.00225313
0.00225823
0.00145847
0.00146858
0.00145007
0.00144402
0.0014415
0.0014418
0.00144373
0.00144992
0.00146893
0.00145925
0.0010248
0.00103573
0.00102655
0.00102197
0.00101943
0.00101959
0.00102173
0.00102647
0.00103507
0.00102404
0.000774515
0.00078399
0.000779496
0.000776187
0.000774286
0.00077413
0.000776738
0.000780437
0.000782719
0.000770845
0.000617024
0.000622383
0.00062476
0.000622072
0.000619363
0.000620103
0.000621745
0.000625879
0.000621348
0.00061332
0.000510947
0.000516894
0.000520434
0.000518737
0.000515251
0.000515565
0.000517728
0.000520543
0.000516752
0.000508702
0.000436172
0.000445697
0.000446662
0.000444475
0.000443052
0.000442629
0.000444643
0.000447056
0.00044269
0.000434899
0.00038027
0.000388152
0.000393125
0.000389824
0.000387812
0.000388162
0.00039064
0.000392764
0.000389893
0.00038069
0.000338116
0.000347538
0.000350128
0.000348617
0.000347148
0.000347825
0.000349036
0.000350889
0.00034861
0.000339346
0.000305204
0.000315785
0.000318276
0.000316386
0.000315244
0.000315447
0.000317143
0.000318659
0.00031597
0.000306986
0.000278814
0.000289728
0.000292346
0.000290713
0.000289797
0.000289908
0.000291358
0.000292651
0.000289925
0.000281136
0.000257185
0.000268065
0.000271078
0.000269564
0.000268829
0.000268927
0.000270139
0.000271542
0.000268696
0.000260113
0.000239108
0.000249882
0.00025323
0.000252068
0.000251383
0.000251545
0.000252623
0.000253967
0.000250978
0.000242728
0.000223745
0.000234542
0.000237756
0.000237119
0.000236571
0.000236824
0.000237862
0.000239177
0.000236073
0.000228189
0.000210467
0.000221387
0.000224852
0.00022425
0.000223942
0.000224301
0.000225311
0.000226601
0.000223381
0.000215888
0.000198806
0.000209982
0.000213657
0.000213281
0.00021311
0.000213529
0.00021454
0.000215862
0.000212545
0.000205447
0.000188379
0.000199944
0.000203988
0.000203808
0.000203766
0.000204306
0.000205353
0.000206643
0.000203226
0.000196482
0.000178844
0.000190774
0.000195497
0.00019559
0.000195634
0.000196216
0.000197311
0.000198706
0.000195274
0.000188871
0.000169914
0.000182588
0.000187909
0.000188326
0.000188563
0.000189289
0.000190416
0.000191793
0.000188404
0.000182275
0.000161274
0.000174864
0.000180953
0.000181758
0.000182139
0.000182981
0.000184258
0.000185877
0.000182724
0.000176838
0.000152598
0.000167532
0.000174596
0.000175878
0.000176518
0.000177717
0.000179037
0.000180621
0.00017775
0.00017206
0.000143423
0.000159813
0.000168412
0.000170328
0.000171206
0.000172519
0.000174174
0.000176286
0.000173911
0.000168484
0.000133082
0.000151591
0.00016217
0.000165148
0.000166678
0.000168361
0.000170112
0.000172273
0.000170547
0.000165299
0.000120596
0.000141993
0.000155622
0.000160026
0.000161669
0.00016377
0.000166162
0.000169251
0.000168271
0.000163557
0.000103582
0.000130281
0.000148089
0.000154722
0.000157751
0.000160357
0.00016274
0.000166192
0.000166092
0.000161776
7.776e-05
0.000113473
0.00013829
0.000148155
0.00015226
0.000155779
0.000159286
0.000164209
0.000164857
0.000163259
6.1773e-05
9.30982e-05
0.000124389
0.000139403
0.000147791
0.000151614
0.000155444
0.000161077
0.000164337
0.000161122
7.02754e-05
8.59924e-05
0.000101133
0.000120845
0.000135111
0.000146392
0.000150652
0.000160036
0.000162669
0.000168818
8.97434e-05
0.000102551
0.000107104
0.000101202
0.000120569
0.000125247
0.000141753
0.000149798
0.000164717
0.00016619
0.00381998
3.07726e-05
2.54757e-05
2.54633e-05
2.54677e-05
2.54677e-05
2.54632e-05
2.54756e-05
3.07585e-05
0.00382428
0.00225056
2.9561e-05
1.22873e-05
1.20706e-05
1.19684e-05
1.21262e-05
1.19662e-05
1.22002e-05
2.94955e-05
0.00226947
0.00146848
0.000271232
6.75042e-05
4.89505e-05
5.61133e-05
4.82897e-05
5.50986e-05
6.02382e-05
0.000271099
0.00148926
0.00103571
0.000372851
0.000194115
0.000124176
0.000174119
0.000140264
0.000170337
0.000201271
0.000375453
0.00105887
0.000783861
0.000270651
0.000189641
0.000257055
0.000268725
0.000229154
0.000259566
0.000173239
0.000289509
0.000803088
0.000622196
0.000183701
0.000158601
0.000216502
0.000124605
0.000196864
0.000123591
9.46948e-05
0.000166702
0.000636254
0.00051652
0.000175216
7.04082e-05
0.000160277
7.98941e-05
8.26247e-05
7.13473e-05
4.72255e-05
0.000138231
0.000525575
0.000445289
0.000162693
6.13008e-05
6.6672e-05
6.8251e-05
8.21922e-05
6.84835e-05
4.84563e-05
0.00012915
0.000447253
0.000387611
0.000164451
5.44487e-05
4.29558e-05
5.47215e-05
7.2339e-05
5.80523e-05
4.62162e-05
0.000122804
0.000392319
0.000346976
0.000175446
5.00019e-05
4.57501e-05
5.6456e-05
7.37627e-05
6.30859e-05
4.99499e-05
0.00011869
0.000349957
0.000315097
0.000167481
4.69454e-05
4.5208e-05
5.60556e-05
7.20163e-05
5.86633e-05
5.03505e-05
0.000134298
0.000316823
0.000288902
0.000159573
3.50944e-05
5.09328e-05
5.74695e-05
6.79035e-05
5.41729e-05
5.47735e-05
0.000140724
0.000290675
0.00026707
0.000152483
4.41444e-05
5.54894e-05
5.48038e-05
6.19049e-05
5.62944e-05
5.81039e-05
0.000137273
0.00026953
0.00024869
0.000147307
4.75131e-05
5.73112e-05
5.41038e-05
6.0334e-05
5.81381e-05
6.08226e-05
0.000131497
0.000251992
0.000233119
0.000142613
5.28615e-05
5.802e-05
5.62988e-05
6.08516e-05
6.01702e-05
6.17473e-05
0.00012427
0.000237214
0.000219673
0.000135798
5.72585e-05
6.12157e-05
6.0097e-05
6.30511e-05
6.30455e-05
6.24366e-05
0.000117258
0.000224663
0.000207928
0.000132382
6.06192e-05
6.59786e-05
6.21969e-05
6.44103e-05
6.59457e-05
6.26034e-05
0.000112684
0.000213805
0.000197479
0.000125552
6.68628e-05
6.92409e-05
6.48018e-05
6.66036e-05
6.71375e-05
6.31014e-05
0.00010898
0.000204481
0.000187843
0.000125759
7.07837e-05
6.81458e-05
6.49335e-05
6.5866e-05
6.73863e-05
6.25475e-05
0.000107469
0.000196173
0.000179131
0.000134196
7.62058e-05
6.80288e-05
6.37266e-05
6.678e-05
6.82927e-05
6.38812e-05
0.000107062
0.000189172
0.000170903
0.00014276
7.99066e-05
6.86996e-05
6.38947e-05
6.36803e-05
6.52899e-05
6.31001e-05
0.000105348
0.000182764
0.000163078
0.000148623
8.82656e-05
7.48251e-05
6.83929e-05
6.71507e-05
6.80008e-05
6.43483e-05
0.000105111
0.000177386
0.000154998
0.000149945
8.97561e-05
7.68368e-05
7.25172e-05
6.80311e-05
7.01759e-05
6.89177e-05
0.000102672
0.000172534
0.000146521
0.000154623
9.71373e-05
7.85412e-05
7.46619e-05
7.17867e-05
7.34772e-05
6.85027e-05
0.000100642
0.000168534
0.000137362
0.000163374
0.000109974
8.49898e-05
7.54462e-05
6.98686e-05
7.20768e-05
7.50223e-05
9.36129e-05
0.000163849
0.000126701
0.000171219
0.000131183
8.56751e-05
8.88423e-05
7.90227e-05
7.8607e-05
7.08352e-05
9.54037e-05
0.000160208
0.000113825
0.000184631
0.000145006
9.85981e-05
8.98617e-05
7.68364e-05
7.76049e-05
7.66656e-05
8.91111e-05
0.000155613
9.79338e-05
0.00019994
0.00018071
0.000115651
8.87821e-05
8.57749e-05
8.61616e-05
7.58605e-05
0.000100372
0.000155044
8.68938e-05
0.000213438
0.000204368
0.000149405
0.00010598
9.04921e-05
8.60675e-05
9.08394e-05
7.63528e-05
0.000152395
8.82914e-05
0.000235852
0.00023765
0.000204282
0.000138222
0.000106764
9.92638e-05
9.84139e-05
0.000117644
0.000138221
0.00381472
2.54767e-05
2.09586e-05
2.09553e-05
2.0956e-05
2.0956e-05
2.09553e-05
2.09586e-05
2.54688e-05
0.00382296
0.00222573
1.20568e-05
3.00068e-06
2.92795e-06
2.92079e-06
2.92589e-06
2.93352e-06
2.99391e-06
1.21952e-05
0.00224867
0.00144955
8.0906e-05
3.87019e-10
4.4037e-08
4.14827e-08
2.38146e-08
3.09608e-08
9.20926e-10
6.94588e-05
0.00146967
0.0010265
0.000221604
2.53774e-12
1.87494e-08
1.38569e-08
1.06471e-08
1.01797e-08
1.39612e-14
0.000192408
0.00104725
0.000779702
0.000270461
1.29663e-07
1.01797e-06
6.77115e-07
1.08987e-06
3.05555e-07
1.14689e-13
0.000249392
0.000796005
0.000624121
0.000110789
1.29216e-06
2.34878e-06
1.35011e-06
2.659e-06
3.64404e-07
9.26816e-12
0.000171262
0.000635382
0.000520059
0.000103919
5.00475e-07
1.18439e-06
1.13127e-06
1.33859e-06
1.58147e-07
5.00535e-08
7.12715e-05
0.000527208
0.000446581
6.79363e-05
3.48466e-07
1.16955e-06
9.20564e-07
6.60205e-07
4.69268e-07
1.05874e-06
6.17244e-05
0.00045059
0.000391787
6.29002e-05
5.22619e-07
2.22006e-07
4.99687e-07
5.49173e-07
1.88825e-07
4.22529e-07
5.32491e-05
0.000395104
0.00035012
5.88985e-05
4.938e-07
3.31996e-07
6.21317e-07
7.97993e-07
2.77421e-07
5.86839e-07
4.87288e-05
0.000352249
0.000317597
5.9322e-05
6.77581e-07
4.92068e-07
5.51282e-07
8.32035e-07
6.6222e-07
8.17448e-07
4.0076e-05
0.000319639
0.000291466
6.14352e-05
7.57688e-07
5.0227e-07
6.0892e-07
7.88894e-07
7.14904e-07
9.41879e-07
3.86749e-05
0.000293552
0.000269885
6.97372e-05
1.10884e-06
6.74807e-07
7.20834e-07
9.76861e-07
8.98359e-07
1.25936e-06
3.96263e-05
0.000272073
0.000251914
7.43972e-05
1.63002e-06
1.18001e-06
8.35691e-07
1.10518e-06
1.26232e-06
1.72517e-06
4.33723e-05
0.000254136
0.000236514
7.82566e-05
2.82312e-06
1.74985e-06
1.07917e-06
1.40001e-06
1.95631e-06
2.48488e-06
4.70421e-05
0.000239051
0.000223306
8.16173e-05
3.88316e-06
2.15501e-06
1.27042e-06
1.78939e-06
2.60198e-06
2.9225e-06
4.94305e-05
0.000226292
0.000211725
8.26466e-05
5.10986e-06
2.62167e-06
1.49458e-06
2.12091e-06
3.37923e-06
3.78736e-06
5.25687e-05
0.000215232
0.000201468
8.40169e-05
7.32282e-06
3.32578e-06
2.00256e-06
2.53218e-06
3.96831e-06
4.25968e-06
5.33922e-05
0.000206036
0.000192368
9.04756e-05
8.8791e-06
4.12522e-06
2.42897e-06
2.72979e-06
3.93736e-06
4.90854e-06
5.29267e-05
0.000197664
0.000183765
9.34651e-05
1.13825e-05
4.37093e-06
2.70385e-06
3.09306e-06
4.52806e-06
5.28575e-06
5.22998e-05
0.000190868
0.000176077
0.000107687
1.45381e-05
5.55906e-06
3.30918e-06
3.63396e-06
4.50032e-06
5.38012e-06
5.03604e-05
0.000184122
0.00016875
0.000112016
1.7719e-05
6.93166e-06
3.6803e-06
3.98595e-06
4.80433e-06
5.67202e-06
4.9152e-05
0.000178894
0.000161364
0.000110423
2.14957e-05
7.57787e-06
4.02818e-06
3.98992e-06
4.92369e-06
6.28951e-06
4.63448e-05
0.000173131
0.000153725
0.000109101
2.46699e-05
1.12602e-05
6.05383e-06
5.81214e-06
5.71679e-06
6.07671e-06
4.42719e-05
0.000168984
0.000145915
0.000126882
3.10039e-05
1.01099e-05
6.84252e-06
5.62745e-06
6.03503e-06
7.65056e-06
4.04764e-05
0.000163391
0.000137382
0.000135062
4.23486e-05
1.28939e-05
8.26303e-06
9.10444e-06
6.79421e-06
8.08457e-06
3.76883e-05
0.000160006
0.000128048
0.000145783
6.56886e-05
1.5628e-05
9.58048e-06
8.6628e-06
7.67061e-06
7.281e-06
3.21958e-05
0.000153345
0.000117448
0.000159898
9.17105e-05
2.65491e-05
8.46855e-06
7.7571e-06
9.85596e-06
7.44423e-06
2.94507e-05
0.000150305
0.000106282
0.000176566
0.000127606
4.30842e-05
1.72876e-05
9.63528e-06
9.83561e-06
8.99657e-06
2.21597e-05
0.000139035
9.69492e-05
0.000195779
0.000165885
8.06111e-05
2.87339e-05
1.41347e-05
1.0872e-05
9.95394e-06
2.18783e-05
0.000139872
0.00381357
2.54645e-05
2.09553e-05
2.09525e-05
2.09531e-05
2.09533e-05
2.09524e-05
2.09553e-05
2.54566e-05
0.0038221
0.00221994
1.19727e-05
2.93212e-06
2.92529e-06
2.91972e-06
2.92025e-06
2.90736e-06
2.93404e-06
1.19558e-05
0.00224228
0.00144349
6.07316e-05
3.29267e-08
1.00404e-08
1.19367e-08
9.51481e-09
5.05474e-08
2.62627e-08
5.81098e-05
0.00146204
0.00102154
0.000174935
1.54456e-08
5.65465e-11
1.24135e-10
2.6381e-11
3.52475e-14
1.89302e-13
0.000155289
0.0010405
0.000775694
0.000199838
9.25702e-07
4.49038e-12
6.01665e-12
4.22331e-13
7.1708e-18
4.04359e-12
0.000186377
0.000790457
0.000621045
0.000107392
7.99475e-07
1.31413e-09
6.74596e-11
1.2412e-09
5.23481e-11
1.77652e-09
0.000161913
0.000630989
0.000516936
5.54068e-05
4.54567e-07
7.22758e-09
3.0969e-09
1.14771e-09
3.59113e-10
7.30043e-08
8.98224e-05
0.000523886
0.000444083
5.6856e-05
2.49839e-07
3.66774e-09
1.62333e-09
5.83185e-09
1.08209e-09
2.17226e-07
5.97137e-05
0.000448288
0.000389622
5.7947e-05
3.16802e-07
4.8093e-09
3.7769e-09
5.64307e-10
3.02264e-10
4.0278e-07
4.12675e-05
0.000392449
0.000347933
4.30941e-05
4.8563e-07
4.05737e-09
2.08162e-09
1.09389e-09
8.27504e-10
2.45418e-07
4.04121e-05
0.000350674
0.000315973
4.77271e-05
4.65184e-07
7.69713e-09
8.01618e-09
2.86653e-09
1.20712e-09
3.46201e-07
4.1496e-05
0.000318089
0.000289745
4.94512e-05
5.70468e-07
1.15248e-08
2.43377e-09
3.65824e-09
4.37867e-09
6.55541e-07
4.50201e-05
0.000292129
0.000268298
5.58088e-05
7.20304e-07
1.14318e-08
2.46355e-09
3.31567e-09
4.51355e-09
9.6051e-07
5.02595e-05
0.000271255
0.000250318
5.67005e-05
1.26957e-06
2.07861e-08
2.99848e-09
5.14695e-09
9.0216e-09
1.03538e-06
5.11549e-05
0.00025384
0.000235169
6.33697e-05
1.77082e-06
2.58166e-08
4.51249e-09
7.91483e-09
1.51853e-08
1.52693e-06
5.63284e-05
0.000238979
0.000221959
6.56847e-05
2.72142e-06
5.62205e-08
6.73413e-09
1.08593e-08
2.5178e-08
1.52298e-06
5.8656e-05
0.000226497
0.000210456
7.08779e-05
3.58296e-06
8.76945e-08
9.52291e-09
1.35569e-08
3.48684e-08
1.77203e-06
5.87284e-05
0.000215617
0.000200315
7.57635e-05
5.07146e-06
1.65407e-07
1.53461e-08
1.91584e-08
5.05242e-08
1.86688e-06
5.73793e-05
0.0002066
0.000191198
8.3714e-05
6.28089e-06
2.48263e-07
2.63214e-08
2.63231e-08
5.57491e-08
1.90512e-06
5.45342e-05
0.000198343
0.000182899
8.94879e-05
8.38627e-06
4.00336e-07
4.44108e-08
3.07477e-08
6.93119e-08
1.8648e-06
5.16e-05
0.000191662
0.000175112
9.76127e-05
1.026e-05
6.03019e-07
7.83447e-08
5.30192e-08
7.34275e-08
1.78194e-06
4.81205e-05
0.000184974
0.000167754
0.00010741
1.39263e-05
9.6081e-07
1.16457e-07
5.8086e-08
8.72676e-08
1.63045e-06
4.4826e-05
0.000179837
0.000160577
0.000117404
1.71904e-05
1.46883e-06
1.96636e-07
6.43112e-08
9.55164e-08
1.43689e-06
4.12303e-05
0.000173997
0.000153199
0.00013294
2.30369e-05
2.46649e-06
2.9869e-07
1.22895e-07
1.29533e-07
1.23575e-06
3.76878e-05
0.000169884
0.000146349
0.000140578
3.05683e-05
3.86026e-06
6.40711e-07
1.67708e-07
1.20186e-07
1.03199e-06
3.37007e-05
0.000164107
0.000138307
0.000136956
3.94229e-05
6.08228e-06
8.85944e-07
3.64244e-07
2.93238e-07
8.73099e-07
2.95829e-05
0.000160758
0.000129733
0.000142213
5.66819e-05
9.45421e-06
1.78956e-06
3.92227e-07
3.00301e-07
7.20047e-07
2.44128e-05
0.000153751
0.000120084
0.000146994
7.67802e-05
1.67892e-05
2.94955e-06
7.47488e-07
5.41832e-07
4.96673e-07
1.97276e-05
0.000149342
0.000109688
0.000160767
0.000100861
2.81232e-05
6.51799e-06
1.28457e-06
4.72958e-07
9.04518e-07
1.35841e-05
0.000137323
9.79025e-05
0.00017036
0.000131679
4.39278e-05
1.1774e-05
3.25509e-06
1.10422e-06
6.27403e-07
9.6473e-06
0.000140704
0.0038133
2.54689e-05
2.0956e-05
2.09528e-05
2.09535e-05
2.09534e-05
2.09532e-05
2.0956e-05
2.5461e-05
0.00382183
0.00221848
1.21367e-05
2.9243e-06
2.8917e-06
2.8811e-06
2.85787e-06
2.91436e-06
2.9286e-06
1.207e-05
0.00224067
0.00144169
4.88624e-05
6.0844e-08
4.72091e-08
6.16474e-08
6.4569e-08
1.82733e-08
2.01945e-08
4.97967e-05
0.00145981
0.00101956
0.000139371
1.44665e-12
3.57514e-09
3.23021e-09
4.94922e-09
4.2589e-10
7.44762e-09
0.000129721
0.00103787
0.0007731
0.000174772
2.77876e-11
1.53027e-12
6.50957e-15
1.0536e-10
1.20497e-11
4.03262e-07
0.000174165
0.000787928
0.000619503
0.000157676
1.46332e-08
2.35435e-11
2.07e-22
5.55917e-13
1.20157e-09
7.2364e-07
0.000171996
0.00062873
0.000515526
9.41758e-05
8.5685e-07
4.49658e-09
1.98377e-15
2.18484e-12
7.84062e-10
2.49647e-07
0.000103352
0.000521857
0.000441248
5.34412e-05
4.04572e-07
1.32427e-08
1.43084e-11
3.71494e-13
1.09847e-10
1.41179e-07
6.52291e-05
0.000446429
0.000387153
5.893e-05
4.30468e-07
9.46236e-10
1.97252e-12
1.65477e-13
1.38619e-10
1.76019e-07
5.95653e-05
0.000390439
0.000346018
5.84363e-05
7.46105e-07
4.09468e-09
1.35341e-11
7.52745e-13
1.18154e-09
4.98197e-07
5.32032e-05
0.000349012
0.000313938
6.09608e-05
1.08836e-06
8.33376e-09
1.99806e-11
8.30806e-12
7.28506e-10
4.41091e-07
4.51584e-05
0.00031669
0.000288191
6.39437e-05
1.24834e-06
1.56173e-08
1.18606e-10
6.65667e-12
8.17694e-10
4.89593e-07
4.64016e-05
0.000291012
0.000267096
6.67508e-05
1.60525e-06
1.6099e-08
6.94578e-11
1.75307e-11
1.39205e-09
5.34366e-07
4.76143e-05
0.000270076
0.000249367
6.93943e-05
2.27189e-06
4.14559e-08
8.1911e-10
1.85735e-11
1.89333e-09
6.72998e-07
4.89833e-05
0.000252742
0.000234225
7.25642e-05
2.96705e-06
3.71094e-08
2.88114e-10
2.77093e-11
2.85384e-09
8.34287e-07
5.19717e-05
0.00023793
0.000221149
7.58386e-05
3.70687e-06
1.28534e-07
2.50607e-09
4.15408e-11
4.69009e-09
1.14187e-06
5.50662e-05
0.000225446
0.00020978
7.98593e-05
4.47404e-06
1.35904e-07
1.52869e-09
7.54983e-11
6.11169e-09
1.40567e-06
5.6694e-05
0.00021456
0.000199769
8.41978e-05
5.42983e-06
2.02586e-07
3.05431e-09
1.29669e-10
7.93066e-09
1.73634e-06
5.73187e-05
0.000205536
0.000190734
8.89663e-05
6.49073e-06
3.0258e-07
7.16767e-09
4.02846e-10
8.10289e-09
1.67416e-06
5.61833e-05
0.000197282
0.000182545
9.49701e-05
8.51709e-06
4.212e-07
1.35546e-08
4.79036e-10
1.03747e-08
1.64841e-06
5.43691e-05
0.000190669
0.000174864
0.000100078
1.02038e-05
6.01522e-07
3.00028e-08
1.92588e-09
1.06944e-08
1.57907e-06
5.10138e-05
0.000184019
0.000167543
0.000108032
1.39874e-05
1.00794e-06
5.54965e-08
3.57526e-09
1.10092e-08
1.46084e-06
4.76618e-05
0.000179041
0.000160522
0.000120205
1.7717e-05
1.47133e-06
1.03137e-07
5.24283e-09
1.10337e-08
1.27869e-06
4.29239e-05
0.000173272
0.000153016
0.000128029
2.33819e-05
2.39027e-06
1.99072e-07
1.26344e-08
9.78202e-09
1.08378e-06
3.87781e-05
0.000169248
0.000146555
0.000154789
3.20733e-05
3.95725e-06
4.43077e-07
3.04242e-08
1.34274e-08
8.69805e-07
3.34783e-05
0.000163706
0.000138595
0.000143886
4.11681e-05
6.40915e-06
7.60508e-07
1.18022e-07
2.42034e-08
6.8057e-07
2.89586e-05
0.000159924
0.000129964
0.000145058
5.87521e-05
1.04409e-05
1.56703e-06
1.7862e-07
3.77222e-08
4.90012e-07
2.339e-05
0.00015343
0.000120246
0.000149213
7.8029e-05
1.77864e-05
3.00784e-06
5.48226e-07
3.4981e-08
3.92395e-07
1.85963e-05
0.000148374
0.000109483
0.000160697
9.97048e-05
2.9095e-05
6.74705e-06
1.28754e-06
5.47585e-07
2.38471e-07
1.28752e-05
0.000141799
9.67537e-05
0.000167733
0.00012962
4.26564e-05
1.23048e-05
3.36865e-06
5.95777e-07
6.27448e-07
8.89483e-06
0.000115117
0.00381332
2.54689e-05
2.0956e-05
2.09532e-05
2.09535e-05
2.09535e-05
2.0953e-05
2.09561e-05
2.5461e-05
0.00382182
0.00221848
1.21254e-05
2.92233e-06
2.92702e-06
2.88956e-06
2.88261e-06
2.89846e-06
2.93295e-06
1.1942e-05
0.00224052
0.0014418
4.74175e-05
3.28621e-08
5.5855e-09
3.21652e-08
5.09614e-08
5.27408e-08
2.19072e-08
5.83215e-05
0.00145935
0.00101959
0.000139555
1.13579e-08
1.19248e-11
1.30429e-09
3.40429e-09
4.11474e-14
2.99685e-09
0.000178546
0.00103762
0.000773405
0.000187559
1.19208e-06
6.5566e-13
3.77844e-12
1.56716e-11
5.78075e-16
7.33404e-07
0.000271125
0.000787798
0.000619256
0.000107229
2.2576e-06
1.2502e-10
1.04484e-14
2.01123e-13
1.213e-11
2.71505e-07
0.00012667
0.000628653
0.000515352
7.03998e-05
1.15623e-06
2.48166e-09
2.71083e-12
6.66335e-13
7.72399e-10
4.19749e-07
7.71885e-05
0.000520821
0.000441384
4.22522e-05
9.01774e-07
2.76545e-09
1.72608e-11
1.11045e-11
5.17916e-10
2.49119e-07
6.49707e-05
0.000446158
0.000386987
4.1336e-05
2.63199e-07
2.84952e-09
1.04671e-11
2.75867e-11
5.81952e-10
9.27429e-07
5.91849e-05
0.000390119
0.000345941
4.77393e-05
3.15423e-07
9.32346e-10
9.9568e-12
7.91371e-12
2.44745e-09
9.07959e-07
5.36907e-05
0.000349138
0.000313844
5.62576e-05
4.46496e-07
7.33672e-09
2.80772e-11
1.36596e-11
6.69964e-10
6.36924e-07
4.23632e-05
0.000317017
0.000288091
6.20475e-05
8.15169e-07
2.45668e-09
2.09792e-11
1.4256e-11
9.19211e-10
5.8805e-07
4.43839e-05
0.000291233
0.000266964
6.50109e-05
1.25067e-06
5.95375e-09
3.66132e-11
2.52304e-11
1.25858e-09
6.70229e-07
4.78731e-05
0.000270101
0.000249272
6.74473e-05
1.74367e-06
1.37744e-08
3.28819e-11
4.40628e-11
2.38283e-09
8.16461e-07
5.06041e-05
0.000252706
0.000234191
7.09335e-05
2.29806e-06
2.68127e-08
3.54844e-10
8.8264e-11
3.32651e-09
1.003e-06
5.34698e-05
0.000237879
0.000221169
7.34269e-05
3.25569e-06
5.35199e-08
2.58092e-10
1.30734e-10
4.27761e-09
1.19241e-06
5.62178e-05
0.000225439
0.000209813
7.80923e-05
3.99685e-06
8.63534e-08
2.63629e-09
1.81274e-10
5.84723e-09
1.46318e-06
5.68907e-05
0.000214587
0.000199761
8.17306e-05
5.29307e-06
1.41752e-07
1.48906e-09
2.87368e-10
6.96393e-09
1.66028e-06
5.65425e-05
0.000205581
0.000190798
8.84883e-05
6.88593e-06
2.22758e-07
8.79648e-09
1.80051e-10
8.05662e-09
1.65843e-06
5.47436e-05
0.000197331
0.000182506
9.29998e-05
8.8443e-06
4.08491e-07
8.51073e-09
9.54169e-10
9.26594e-09
1.62532e-06
5.28504e-05
0.000190683
0.000174914
9.81688e-05
1.14204e-05
6.34026e-07
4.81571e-08
2.03661e-09
9.33708e-09
1.54692e-06
4.97177e-05
0.000184019
0.000167561
0.00010258
1.44628e-05
1.06509e-06
4.21657e-08
3.78692e-09
9.87936e-09
1.42661e-06
4.68827e-05
0.000178993
0.000160389
0.000115163
1.8754e-05
1.66213e-06
2.08028e-07
4.96798e-09
1.09123e-08
1.29573e-06
4.28612e-05
0.000173191
0.000153101
0.000125781
2.25467e-05
2.47581e-06
1.77573e-07
3.51346e-08
1.22959e-08
1.12483e-06
3.9496e-05
0.000169115
0.000145866
0.000144027
3.37474e-05
4.16163e-06
7.57488e-07
5.45385e-08
1.19704e-08
9.84494e-07
3.47707e-05
0.000163666
0.000138596
0.000145374
4.54677e-05
6.52457e-06
7.04873e-07
1.37667e-07
3.4339e-08
7.7734e-07
3.08153e-05
0.000159641
0.000130059
0.000145377
5.87896e-05
1.01676e-05
2.27844e-06
2.27294e-07
1.15722e-07
6.46834e-07
2.49702e-05
0.00015361
0.000120478
0.000151039
7.89501e-05
1.60856e-05
2.63568e-06
5.49369e-07
8.68038e-08
4.26302e-07
2.04363e-05
0.000151315
0.000109708
0.00016124
0.000100804
2.85764e-05
6.73488e-06
1.08722e-06
2.01889e-07
3.36755e-07
1.38336e-05
0.0001351
9.70405e-05
0.00016812
0.00013112
4.21492e-05
1.14173e-05
2.98766e-06
6.53407e-07
5.9296e-07
9.6802e-06
0.000143624
0.00381363
2.54645e-05
2.09554e-05
2.09523e-05
2.09531e-05
2.0953e-05
2.09523e-05
2.09554e-05
2.54566e-05
0.00382207
0.00222017
1.21093e-05
2.93735e-06
2.89704e-06
2.90008e-06
2.89841e-06
2.89598e-06
2.93187e-06
1.19493e-05
0.00224217
0.00144395
4.87367e-05
2.63424e-08
4.85982e-08
5.44853e-08
3.63117e-08
5.81387e-08
3.12759e-08
5.8641e-05
0.00146148
0.00102181
0.000140342
8.9529e-09
3.62543e-09
4.26028e-14
1.64875e-09
3.08387e-09
2.20707e-09
0.000159416
0.00103976
0.00077596
0.000201876
8.45742e-07
6.69432e-11
1.43489e-19
3.38884e-14
4.62243e-15
6.54227e-07
0.00018673
0.000789989
0.000621641
0.000110683
8.48654e-07
6.3495e-10
8.24449e-11
1.57435e-10
9.3194e-16
4.47076e-07
0.000156196
0.000630774
0.000517692
8.11223e-05
9.35024e-07
3.8115e-09
3.73971e-10
8.77896e-10
1.09427e-13
2.57277e-07
9.96053e-05
0.000523535
0.000443528
4.8944e-05
7.75462e-07
6.40681e-09
1.09456e-09
1.89997e-10
6.83728e-13
3.94556e-07
8.41465e-05
0.00044852
0.000388891
4.24963e-05
2.83516e-07
1.92201e-09
1.09321e-09
3.67999e-09
9.66489e-12
4.45241e-07
7.56373e-05
0.000392542
0.000347744
4.9284e-05
4.86077e-07
2.70636e-09
1.8627e-09
2.81612e-09
7.97361e-11
1.21756e-06
6.22872e-05
0.000351025
0.00031546
5.67113e-05
4.11909e-07
7.16935e-10
3.00347e-09
4.32535e-09
1.65341e-09
6.71141e-07
4.54296e-05
0.000318499
0.000289527
6.03799e-05
7.17828e-07
1.59668e-09
3.40243e-09
3.5958e-09
2.52858e-09
6.80587e-07
5.07814e-05
0.000292602
0.000268225
6.19398e-05
1.16843e-06
8.0013e-09
5.30451e-09
5.49758e-09
6.11271e-09
8.85629e-07
5.59556e-05
0.000271313
0.000250395
6.41704e-05
1.48458e-06
1.61797e-08
8.37732e-09
9.38679e-09
7.70621e-09
1.17687e-06
5.85559e-05
0.000253937
0.000235179
6.63008e-05
2.37607e-06
3.71746e-08
1.3823e-08
1.62434e-08
1.19578e-08
1.40805e-06
6.02476e-05
0.000239046
0.000222053
7.11539e-05
2.99461e-06
5.93091e-08
1.98606e-08
2.16642e-08
1.60159e-08
1.63614e-06
6.15926e-05
0.000226519
0.000210571
7.53499e-05
4.04705e-06
9.9956e-08
2.73419e-08
3.00701e-08
2.89139e-08
1.89377e-06
6.0358e-05
0.000215643
0.000200409
7.94203e-05
5.27669e-06
1.60766e-07
3.99902e-08
3.50221e-08
3.77076e-08
1.91466e-06
5.78848e-05
0.000206598
0.000191285
8.49124e-05
7.26661e-06
2.62478e-07
3.92586e-08
5.34728e-08
5.22849e-08
1.87324e-06
5.48468e-05
0.000198383
0.000182942
9.00177e-05
9.90644e-06
5.12334e-07
9.3948e-08
5.47249e-08
6.26334e-08
1.77135e-06
5.06992e-05
0.000191721
0.000175202
9.60932e-05
1.20199e-05
7.37513e-07
7.61466e-08
9.14401e-08
7.22111e-08
1.63472e-06
4.66561e-05
0.000185041
0.000167735
0.000103187
1.53192e-05
1.24147e-06
2.14638e-07
9.52747e-08
8.86643e-08
1.48578e-06
4.29329e-05
0.000179932
0.000160482
0.000113336
1.87784e-05
1.7309e-06
1.49412e-07
1.14309e-07
1.10672e-07
1.2904e-06
3.86511e-05
0.000174044
0.000153222
0.000121503
2.41869e-05
2.80543e-06
4.83795e-07
7.9888e-08
9.92848e-08
1.14961e-06
3.54946e-05
0.000169862
0.000145898
0.00013189
3.04266e-05
4.17574e-06
3.93197e-07
1.82457e-07
1.85655e-07
9.46039e-07
3.09235e-05
0.000164198
0.000138039
0.000136878
4.33529e-05
6.71807e-06
1.2194e-06
1.26976e-07
2.12045e-07
8.32571e-07
2.72163e-05
0.000160361
0.000129595
0.000144124
5.98961e-05
1.08414e-05
1.40759e-06
4.25023e-07
2.58974e-07
6.49292e-07
2.19451e-05
0.000154327
0.000120127
0.000151196
8.11506e-05
1.81116e-05
3.79026e-06
4.86229e-07
2.97769e-07
5.96987e-07
1.79296e-05
0.000146354
0.000109895
0.000163578
0.000105019
3.06338e-05
6.41795e-06
1.84684e-06
5.17325e-07
5.5285e-07
1.27485e-05
0.000142673
9.84127e-05
0.0001734
0.000135472
4.70515e-05
1.35159e-05
3.35577e-06
1.03633e-06
7.6364e-07
9.14827e-06
0.000116582
0.00381472
2.54768e-05
2.09584e-05
2.09554e-05
2.09561e-05
2.09561e-05
2.09554e-05
2.09587e-05
2.54689e-05
0.003823
0.00222696
1.22222e-05
2.98081e-06
2.93216e-06
2.9276e-06
2.93322e-06
2.92874e-06
3.01597e-06
1.22278e-05
0.00224904
0.00144994
5.94022e-05
8.20978e-10
1.46106e-08
2.97574e-08
1.75635e-08
5.55863e-08
6.02937e-10
6.19609e-05
0.00146843
0.00102632
0.000205081
4.21272e-14
5.52918e-09
4.83259e-09
1.11484e-09
1.53944e-12
6.44462e-13
0.000196401
0.00104531
0.000780167
0.000163064
7.40447e-13
4.08828e-07
5.20832e-07
1.09291e-06
5.85083e-11
9.72593e-11
0.00026014
0.000794436
0.000625524
0.000107642
1.14998e-09
5.43124e-07
4.00475e-07
3.30962e-07
5.35613e-08
1.63942e-08
0.000162881
0.000634519
0.000520197
7.90945e-05
9.56941e-07
3.68364e-07
3.49834e-07
6.07946e-07
3.54795e-07
6.7159e-07
9.63626e-05
0.00052638
0.000447
6.80036e-05
5.14287e-07
2.04392e-07
5.82952e-07
2.33619e-07
5.52031e-07
2.98162e-06
8.34739e-05
0.000450717
0.000390986
6.57155e-05
6.90166e-07
3.98731e-07
4.67357e-07
1.61882e-06
2.23051e-07
4.05757e-07
6.72582e-05
0.000394539
0.00035004
5.90704e-05
1.26289e-06
4.59564e-07
1.10619e-06
1.4799e-06
3.53345e-07
7.32574e-07
7.09279e-05
0.000352201
0.000317767
5.74554e-05
1.43842e-06
5.59644e-07
8.63653e-07
1.16e-06
5.52912e-07
9.51161e-07
6.09714e-05
0.000319458
0.00029143
6.48943e-05
1.74137e-06
7.29501e-07
1.0101e-06
1.03221e-06
9.02353e-07
8.37454e-07
5.48436e-05
0.00029334
0.000269861
6.59517e-05
2.45204e-06
8.20358e-07
1.14334e-06
1.12722e-06
1.41344e-06
1.3023e-06
5.52476e-05
0.000271912
0.000251872
6.59572e-05
2.78544e-06
9.82297e-07
1.51608e-06
1.36708e-06
1.85582e-06
2.08888e-06
5.65305e-05
0.00025417
0.000236502
6.60604e-05
3.64369e-06
1.24271e-06
1.94765e-06
1.83891e-06
2.5588e-06
3.00513e-06
5.78753e-05
0.000239126
0.000223304
7.23298e-05
4.83547e-06
1.70796e-06
2.39591e-06
2.35455e-06
3.05717e-06
3.47013e-06
5.7949e-05
0.000226439
0.000211781
7.69907e-05
5.62504e-06
2.08378e-06
2.7521e-06
2.72842e-06
3.5779e-06
4.22706e-06
5.74264e-05
0.00021542
0.000201529
7.99761e-05
7.18556e-06
2.6157e-06
3.18186e-06
3.36942e-06
3.86452e-06
4.38496e-06
5.58042e-05
0.000206192
0.000192358
8.55741e-05
8.06308e-06
3.15585e-06
3.62e-06
3.83268e-06
4.27518e-06
5.29364e-06
5.37763e-05
0.000197827
0.000183849
8.98804e-05
1.01963e-05
4.49909e-06
3.76665e-06
3.94793e-06
4.79767e-06
4.97458e-06
5.13937e-05
0.000190963
0.000176135
9.75499e-05
1.20892e-05
5.06209e-06
4.56579e-06
4.73434e-06
4.85278e-06
5.88804e-06
4.8796e-05
0.000184225
0.000168472
0.000103262
1.4931e-05
4.62355e-06
4.9906e-06
5.03403e-06
5.81359e-06
6.24699e-06
4.63077e-05
0.00017898
0.000161086
0.00011329
1.92639e-05
5.41218e-06
5.3098e-06
5.03006e-06
6.21669e-06
6.64495e-06
4.31808e-05
0.000173108
0.000153446
0.000126194
2.31794e-05
6.4681e-06
5.23624e-06
6.41402e-06
6.505e-06
7.12725e-06
4.07922e-05
0.000168978
0.000145832
0.000144746
3.68104e-05
8.94446e-06
7.32788e-06
7.36899e-06
6.49355e-06
7.31117e-06
3.65861e-05
0.000163356
0.000137866
0.00014744
5.19626e-05
1.23961e-05
7.04479e-06
6.18597e-06
8.47469e-06
7.76037e-06
3.40404e-05
0.000159916
0.000128736
0.000152741
6.80136e-05
1.85016e-05
8.18797e-06
7.14713e-06
7.13289e-06
8.21637e-06
2.95277e-05
0.000152722
0.000118161
0.000163322
9.22238e-05
2.64234e-05
1.15927e-05
8.01722e-06
9.13155e-06
9.794e-06
2.69829e-05
0.000150861
0.000106916
0.000177109
0.000123742
4.1856e-05
1.68272e-05
1.18131e-05
8.39758e-06
9.57554e-06
2.06542e-05
0.000138102
9.75776e-05
0.000194986
0.000163508
7.31628e-05
2.98712e-05
1.71544e-05
1.24388e-05
1.00232e-05
2.17918e-05
0.000137895
0.00381781
3.0761e-05
2.54699e-05
2.54578e-05
2.54622e-05
2.54622e-05
2.54577e-05
2.54699e-05
3.07523e-05
0.00382559
0.00225312
2.95257e-05
1.21937e-05
1.19688e-05
1.2083e-05
1.20985e-05
1.20679e-05
1.20194e-05
2.97198e-05
0.00227491
0.00146889
0.00027213
6.96909e-05
6.0214e-05
5.14622e-05
4.99108e-05
4.98658e-05
7.09077e-05
0.000270129
0.00149445
0.00103474
0.00037244
0.000197431
0.000162503
0.000133093
0.000143214
0.000135904
0.0002293
0.000449445
0.00106692
0.000782156
0.000259812
0.000196226
0.000192496
0.000178537
0.000296927
0.000174723
0.000158614
0.000253108
0.000807103
0.000621079
0.000167733
0.000134699
0.000167992
0.000172082
0.000148788
0.000161402
0.000119989
0.000200754
0.000639499