/*--------------------------------*- C++ -*----------------------------------*\
| =========                 |                                                 |
| \\      /  F ield         | OpenFOAM: The Open Source CFD Toolbox           |
|  \\    /   O peration     | Version:  4.1                                   |
|   \\  /    A nd           | Web:      www.OpenFOAM.org                      |
|    \\/     M anipulation  |                                                 |
\*---------------------------------------------------------------------------*/
FoamFile
{
    version     2.0;
    format      ascii;
    class       volScalarField;
    location    "900";
    object      p;
}
// * * * * * * * * * * * * * * * * * * * * * * * * * * * * * * * * * * * * * //

dimensions      [0 2 -2 0 0 0 0];

internalField   nonuniform List<scalar> 
12000
(
0.0762806
0.0765577
0.0762221
0.0761015
0.0760637
0.0760621
0.0760968
0.0762147
0.0765478
0.0762696
0.0757103
0.075694
0.0756307
0.0756329
0.0756194
0.0756177
0.075628
0.0756229
0.0756838
0.0756985
0.0755895
0.0753531
0.0754145
0.0754628
0.0754646
0.0754627
0.0754572
0.0754057
0.0753415
0.0755757
0.0755581
0.0752943
0.0753787
0.0754069
0.0754068
0.0754045
0.0754001
0.0753681
0.0752805
0.075541
0.075459
0.0752395
0.075326
0.0753296
0.0753269
0.0753241
0.0753212
0.0753131
0.0752227
0.0754378
0.0753345
0.0751596
0.0752437
0.0752342
0.0752337
0.0752302
0.0752237
0.0752274
0.0751384
0.0753077
0.075232
0.0750907
0.0751676
0.07515
0.0751524
0.0751479
0.0751366
0.0751463
0.0750632
0.0751978
0.0751565
0.075041
0.0751085
0.0750844
0.0750878
0.0750821
0.075067
0.075081
0.075006
0.0751129
0.0750976
0.0750024
0.0750602
0.0750314
0.075034
0.0750267
0.0750087
0.0750249
0.0749577
0.0750418
0.0750494
0.0749701
0.0750175
0.0749853
0.0749865
0.0749772
0.0749563
0.0749721
0.0749113
0.0749772
0.0750104
0.0749423
0.0749802
0.0749453
0.0749441
0.0749319
0.0749076
0.074921
0.0748651
0.074917
0.0749805
0.0749197
0.0749488
0.074911
0.0749059
0.0748898
0.0748613
0.0748708
0.0748175
0.0748598
0.0749593
0.0749025
0.0749225
0.074881
0.0748706
0.0748497
0.0748163
0.0748211
0.07477
0.0748036
0.0749469
0.0748913
0.0749018
0.0748555
0.0748378
0.0748107
0.0747715
0.0747695
0.0747205
0.0747451
0.0749441
0.0748875
0.0748875
0.0748345
0.0748075
0.0747722
0.0747258
0.0747148
0.074663
0.0746804
0.0749527
0.0748927
0.0748806
0.0748182
0.0747793
0.0747332
0.0746771
0.0746554
0.0745978
0.0746087
0.0749744
0.0749087
0.0748816
0.0748069
0.0747529
0.0746927
0.0746237
0.0745889
0.0745244
0.0745286
0.0750116
0.074938
0.0748922
0.0748012
0.0747281
0.0746497
0.0745639
0.0745129
0.074439
0.0744358
0.0750667
0.0749836
0.0749141
0.0748018
0.0747046
0.074603
0.0744953
0.0744237
0.0743363
0.0743241
0.0751419
0.0750487
0.0749494
0.0748096
0.0746821
0.0745509
0.0744146
0.0743162
0.0742096
0.0741857
0.0752381
0.0751362
0.0750001
0.0748257
0.0746605
0.0744915
0.0743176
0.0741838
0.0740501
0.0740109
0.0753534
0.0752469
0.0750679
0.0748513
0.0746397
0.0744226
0.0741993
0.0740178
0.0738459
0.0737857
0.0754816
0.0753781
0.0751542
0.074888
0.0746204
0.0743424
0.0740537
0.0738066
0.0735798
0.0734894
0.0756098
0.0755201
0.0752593
0.0749389
0.0746044
0.0742492
0.073873
0.0735339
0.0732254
0.0730891
0.0757199
0.0756543
0.0753815
0.0750093
0.0745959
0.0741423
0.0736483
0.0731767
0.0727413
0.0725288
0.0757944
0.0757591
0.0755187
0.0751088
0.074603
0.0740229
0.073368
0.0727008
0.0720579
0.071708
0.0758323
0.0758259
0.0756665
0.0752442
0.0746346
0.0738945
0.0730195
0.0720585
0.0710574
0.0704134
0.075863
0.0759007
0.0758283
0.0754075
0.0746906
0.0737551
0.0725786
0.071166
0.0695339
0.0681781
0.0758757
0.0759473
0.07591
0.0755132
0.0747299
0.073596
0.0720398
0.0699269
0.0671942
0.0635675
0.0758351
0.075884
0.0757862
0.0753783
0.0745871
0.0732782
0.0712642
0.0679941
0.063637
0.0528709
0.0765591
0.0765809
0.076253
0.0761349
0.076095
0.0760934
0.0761302
0.0762453
0.0765704
0.0765479
0.0756953
0.0756407
0.075606
0.0756133
0.0755982
0.0755965
0.0756084
0.0755982
0.0756303
0.0756835
0.0753547
0.0751334
0.0752182
0.0752738
0.0752747
0.0752728
0.0752683
0.0752095
0.0751218
0.0753407
0.0752963
0.075037
0.0751377
0.0751659
0.0751641
0.0751619
0.0751593
0.0751274
0.0750231
0.075279
0.0752421
0.0750208
0.0751245
0.0751204
0.0751161
0.0751133
0.0751122
0.0751117
0.0750035
0.0752204
0.0751628
0.0749828
0.0750853
0.075065
0.0750653
0.0750619
0.0750547
0.0750691
0.074961
0.0751354
0.0750948
0.0749449
0.0750385
0.0750096
0.0750152
0.0750109
0.0749963
0.075018
0.0749172
0.0750595
0.0750462
0.0749215
0.0750027
0.0749669
0.0749748
0.0749693
0.0749496
0.074976
0.0748855
0.0750014
0.0750092
0.0749054
0.0749747
0.0749341
0.074942
0.0749348
0.0749117
0.0749398
0.0748586
0.074952
0.0749788
0.0748898
0.0749482
0.0749053
0.0749118
0.0749025
0.074876
0.0749029
0.0748296
0.0749042
0.0749536
0.074875
0.0749227
0.0748784
0.0748821
0.0748702
0.0748402
0.0748637
0.0747972
0.0748565
0.0749341
0.0748629
0.0748998
0.0748541
0.0748534
0.0748379
0.0748043
0.0748234
0.0747617
0.0748076
0.0749209
0.0748546
0.074881
0.0748328
0.0748261
0.0748058
0.0747677
0.0747799
0.0747219
0.0747586
0.0749147
0.074851
0.0748668
0.0748145
0.0748
0.0747734
0.0747298
0.0747333
0.0746771
0.0747071
0.0749168
0.0748532
0.0748574
0.0747992
0.0747748
0.0747401
0.0746897
0.0746842
0.0746263
0.0746471
0.074929
0.0748629
0.0748535
0.0747872
0.0747505
0.0747051
0.0746458
0.0746293
0.074567
0.0745787
0.0749532
0.0748821
0.0748568
0.074779
0.0747267
0.0746675
0.074596
0.0745661
0.0744971
0.0745006
0.0749914
0.074913
0.0748684
0.074775
0.0747032
0.0746261
0.0745383
0.0744916
0.0744131
0.0744083
0.0750459
0.0749584
0.07489
0.074776
0.0746797
0.0745795
0.0744702
0.074402
0.0743099
0.0742958
0.0751185
0.0750209
0.0749229
0.0747823
0.0746555
0.0745258
0.0743883
0.0742922
0.0741808
0.0741551
0.0752101
0.0751027
0.0749687
0.0747946
0.0746299
0.0744626
0.074288
0.0741553
0.0740167
0.0739756
0.0753196
0.0752051
0.0750288
0.0748134
0.0746024
0.0743871
0.0741635
0.073982
0.0738047
0.0737427
0.0754424
0.0753266
0.0751044
0.0748398
0.0745727
0.0742962
0.0740076
0.0737594
0.073526
0.0734335
0.075569
0.0754614
0.0751963
0.0748759
0.0745416
0.0741872
0.0738109
0.0734691
0.0731517
0.0730126
0.0756847
0.0755979
0.0753043
0.0749258
0.0745119
0.0740582
0.0735627
0.0730852
0.072636
0.0724186
0.0757734
0.0757188
0.075428
0.0749964
0.0744891
0.0739088
0.0732493
0.0725701
0.0719021
0.0715418
0.0758265
0.0758067
0.0755615
0.0750935
0.0744816
0.0737424
0.0728571
0.0718714
0.0708194
0.0701479
0.0758519
0.0758666
0.0756931
0.0752089
0.0744894
0.0735577
0.072363
0.070905
0.0691657
0.0677305
0.0758394
0.0758746
0.0757509
0.0752807
0.0744885
0.0733536
0.0717623
0.0695667
0.066621
0.0627434
0.0758024
0.0757762
0.075582
0.0751225
0.0743255
0.0730229
0.0709827
0.0675617
0.0629176
0.0513516
0.0762248
0.0762543
0.075949
0.0758261
0.0757847
0.0757831
0.0758214
0.0759413
0.0762436
0.0762139
0.0756333
0.0756073
0.0755781
0.07558
0.0755649
0.0755632
0.0755751
0.0755703
0.0755969
0.0756215
0.0754175
0.0752197
0.0753045
0.0753584
0.0753597
0.0753579
0.0753528
0.0752959
0.0752081
0.0754035
0.0753824
0.0751396
0.0752389
0.0752656
0.0752634
0.0752612
0.075259
0.0752287
0.0751257
0.075365
0.0753307
0.0751267
0.0752317
0.0752253
0.0752203
0.0752176
0.0752171
0.075219
0.0751096
0.0753088
0.0752496
0.075088
0.0751956
0.0751735
0.0751743
0.0751709
0.0751632
0.0751796
0.0750666
0.075222
0.0751749
0.0750419
0.0751426
0.0751124
0.07512
0.0751157
0.0750991
0.0751222
0.0750147
0.07514
0.0751176
0.0750072
0.0750959
0.0750585
0.0750693
0.0750638
0.0750412
0.0750693
0.0749716
0.0750735
0.075072
0.0749806
0.0750572
0.0750145
0.0750255
0.0750185
0.0749921
0.0750224
0.074934
0.0750156
0.075033
0.0749557
0.0750213
0.0749758
0.0749856
0.0749764
0.0749464
0.0749759
0.0748957
0.07496
0.0750001
0.0749325
0.0749868
0.0749398
0.0749468
0.074935
0.0749015
0.0749277
0.0748548
0.0749056
0.0749742
0.0749125
0.0749553
0.0749069
0.0749096
0.0748942
0.0748572
0.0748785
0.0748122
0.0748518
0.0749558
0.0748974
0.0749287
0.0748781
0.0748748
0.0748546
0.0748134
0.0748277
0.0747654
0.0747974
0.074945
0.0748878
0.0749075
0.0748533
0.074842
0.0748157
0.0747694
0.0747754
0.0747142
0.0747397
0.074943
0.0748846
0.0748917
0.074832
0.0748109
0.0747765
0.0747237
0.0747205
0.0746592
0.0746763
0.0749511
0.0748891
0.0748819
0.0748146
0.074781
0.0747362
0.0746747
0.0746603
0.0745968
0.0746052
0.0749712
0.0749031
0.0748797
0.0748012
0.074752
0.0746935
0.0746203
0.0745922
0.0745235
0.0745236
0.0750051
0.0749286
0.0748859
0.0747921
0.0747234
0.0746472
0.0745581
0.0745129
0.0744355
0.0744274
0.0750545
0.0749678
0.0749015
0.0747876
0.0746945
0.0745955
0.0744854
0.0744184
0.0743279
0.0743105
0.0751211
0.0750227
0.0749276
0.0747877
0.0746644
0.0745363
0.0743984
0.0743036
0.0741941
0.0741652
0.0752053
0.0750952
0.0749652
0.0747925
0.074632
0.0744667
0.0742923
0.0741613
0.0740246
0.0739805
0.0753053
0.075186
0.0750151
0.0748021
0.0745959
0.0743834
0.0741607
0.0739815
0.0738058
0.0737407
0.075417
0.0752938
0.0750778
0.0748165
0.0745551
0.0742824
0.0739953
0.0737503
0.0735179
0.0734222
0.0755324
0.075414
0.0751532
0.0748367
0.0745092
0.07416
0.073786
0.073448
0.0731305
0.0729873
0.0756411
0.0755376
0.0752404
0.0748645
0.0744592
0.074013
0.0735208
0.0730474
0.0725955
0.072372
0.0757317
0.0756523
0.0753376
0.0749041
0.0744093
0.0738406
0.0731858
0.0725094
0.0718328
0.0714616
0.075796
0.075746
0.0754421
0.0749618
0.0743692
0.0736492
0.072771
0.0717846
0.0707095
0.0700145
0.0758332
0.0758113
0.0755462
0.0750415
0.0743539
0.073455
0.0722716
0.0708051
0.0690067
0.0675146
0.0758478
0.0758433
0.0756297
0.0751484
0.0744052
0.0733214
0.0717491
0.0695363
0.0664593
0.0624215
0.0758535
0.0758317
0.0756558
0.075273
0.0745709
0.0733342
0.0713158
0.0678642
0.0629958
0.0509782
0.0761055
0.0761376
0.0758275
0.0757035
0.0756617
0.0756601
0.0756988
0.0758197
0.0761268
0.0760947
0.0756369
0.075616
0.0755815
0.0755836
0.0755683
0.0755666
0.0755787
0.0755736
0.0756056
0.0756252
0.0754674
0.0752768
0.0753599
0.0754159
0.0754174
0.0754155
0.0754104
0.0753513
0.0752653
0.0754534
0.0754125
0.0751696
0.0752674
0.075296
0.0752935
0.0752913
0.0752895
0.0752572
0.0751558
0.0753951
0.0753365
0.0751249
0.0752275
0.0752215
0.0752158
0.0752131
0.0752134
0.075215
0.075108
0.0753146
0.075243
0.0750708
0.0751764
0.0751537
0.0751539
0.0751505
0.0751433
0.0751605
0.0750494
0.0752154
0.0751614
0.0750169
0.075116
0.0750844
0.0750919
0.0750877
0.0750711
0.0750956
0.0749896
0.0751263
0.075099
0.0749764
0.0750633
0.0750238
0.0750347
0.0750293
0.0750066
0.0750368
0.074941
0.0750541
0.0750503
0.0749465
0.0750208
0.0749755
0.0749867
0.0749797
0.0749532
0.0749863
0.0749005
0.0749923
0.0750102
0.0749213
0.074984
0.0749358
0.0749457
0.0749367
0.0749067
0.0749392
0.0748618
0.074935
0.0749774
0.0748994
0.0749507
0.0749011
0.0749083
0.0748966
0.0748631
0.0748921
0.074822
0.0748804
0.0749522
0.0748815
0.0749214
0.0748706
0.0748733
0.0748581
0.0748211
0.0748449
0.0747807
0.0748271
0.0749346
0.0748687
0.0748972
0.0748445
0.0748409
0.074821
0.07478
0.0747971
0.0747368
0.0747733
0.074925
0.0748614
0.0748783
0.0748224
0.0748109
0.0747848
0.0747388
0.0747477
0.0746889
0.074717
0.0749242
0.0748604
0.0748649
0.0748041
0.0747824
0.0747484
0.0746959
0.074695
0.0746357
0.0746557
0.0749335
0.0748669
0.0748574
0.0747893
0.0747551
0.0747106
0.0746494
0.0746367
0.0745746
0.0745865
0.0749543
0.0748824
0.0748567
0.074778
0.0747282
0.0746702
0.0745972
0.0745702
0.0745024
0.0745058
0.0749883
0.0749088
0.0748637
0.0747704
0.0747012
0.0746256
0.0745368
0.0744924
0.0744153
0.0744096
0.0750371
0.0749478
0.0748792
0.0747665
0.0746731
0.0745749
0.0744654
0.074399
0.0743082
0.0742922
0.0751019
0.0750015
0.0749041
0.074766
0.0746429
0.0745158
0.0743787
0.0742846
0.0741742
0.0741457
0.0751828
0.0750713
0.0749392
0.0747689
0.074609
0.0744451
0.0742718
0.0741416
0.0740036
0.0739589
0.0752785
0.0751579
0.0749851
0.0747749
0.07457
0.0743592
0.0741379
0.0739597
0.0737824
0.0737159
0.0753853
0.0752602
0.075042
0.0747837
0.0745244
0.0742539
0.0739686
0.0737246
0.0734903
0.0733922
0.0754968
0.0753746
0.0751101
0.074796
0.0744716
0.0741253
0.0737535
0.0734166
0.0730963
0.0729496
0.0756049
0.0754943
0.0751891
0.0748141
0.0744132
0.0739712
0.0734815
0.0730088
0.0725525
0.0723237
0.0757008
0.0756101
0.0752795
0.074844
0.0743557
0.0737935
0.073142
0.0724652
0.0717807
0.0714005
0.075778
0.0757129
0.0753826
0.074898
0.0743164
0.0736072
0.0727337
0.071745
0.0706548
0.0699437
0.0758354
0.0757968
0.0754992
0.0749954
0.0743283
0.0734469
0.0722706
0.0707995
0.0689742
0.0674517
0.0758784
0.0758607
0.0756333
0.0751762
0.074469
0.0734105
0.0718491
0.069633
0.0665206
0.0624418
0.0759097
0.0758983
0.0757832
0.0754794
0.0748282
0.073614
0.0716049
0.0681571
0.0632651
0.0512598
0.0760693
0.0760992
0.0757875
0.0756632
0.0756213
0.0756197
0.0756585
0.0757798
0.0760884
0.0760584
0.075625
0.0756025
0.0755678
0.0755699
0.0755546
0.0755529
0.075565
0.07556
0.0755921
0.0756133
0.0754711
0.0752796
0.0753631
0.0754192
0.0754205
0.0754186
0.0754137
0.0753545
0.0752681
0.0754571
0.0754147
0.07517
0.0752674
0.0752957
0.0752929
0.0752907
0.0752891
0.0752572
0.0751562
0.0753972
0.0753367
0.0751234
0.0752253
0.0752186
0.0752125
0.0752097
0.0752104
0.0752128
0.0751065
0.0753147
0.0752461
0.0750746
0.0751807
0.0751575
0.0751574
0.075154
0.0751471
0.0751648
0.0750532
0.0752184
0.0751682
0.0750272
0.0751283
0.0750966
0.0751042
0.0750999
0.0750832
0.0751078
0.0749998
0.0751332
0.0751082
0.0749904
0.0750801
0.0750407
0.0750521
0.0750466
0.0750235
0.0750535
0.074955
0.0750632
0.0750607
0.0749622
0.0750396
0.0749946
0.0750064
0.0749995
0.0749722
0.0750051
0.0749163
0.0750027
0.0750213
0.0749381
0.0750038
0.074956
0.0749667
0.0749577
0.0749268
0.0749591
0.0748785
0.0749464
0.0749891
0.0749164
0.0749708
0.0749217
0.0749298
0.0749182
0.0748837
0.0749125
0.0748391
0.0748926
0.074964
0.0748981
0.0749412
0.0748907
0.0748946
0.0748794
0.0748413
0.074865
0.0747973
0.0748399
0.0749458
0.0748844
0.0749161
0.0748635
0.0748611
0.0748413
0.0747992
0.0748165
0.0747527
0.0747864
0.0749355
0.0748758
0.0748959
0.07484
0.0748296
0.0748037
0.0747566
0.0747659
0.0747041
0.0747296
0.0749339
0.0748734
0.0748809
0.07482
0.0747995
0.0747656
0.074712
0.0747115
0.0746495
0.0746674
0.074942
0.0748783
0.0748717
0.0748033
0.0747703
0.0747261
0.0746637
0.0746515
0.0745869
0.0745971
0.0749615
0.074892
0.074869
0.0747901
0.0747415
0.0746838
0.0746097
0.0745833
0.0745132
0.0745153
0.0749939
0.0749163
0.0748738
0.0747803
0.0747124
0.0746372
0.0745476
0.0745038
0.0744247
0.0744179
0.0750407
0.0749529
0.0748868
0.0747739
0.074682
0.0745844
0.0744742
0.0744086
0.0743161
0.0742991
0.0751032
0.0750037
0.0749089
0.0747708
0.0746492
0.0745229
0.0743854
0.0742923
0.0741806
0.0741511
0.0751813
0.0750702
0.0749407
0.0747706
0.0746124
0.0744494
0.074276
0.074147
0.074008
0.0739626
0.0752739
0.0751532
0.0749827
0.074773
0.0745699
0.0743602
0.0741391
0.0739622
0.0737844
0.0737173
0.0753779
0.0752519
0.0750353
0.0747777
0.0745202
0.0742511
0.0739661
0.0737237
0.0734892
0.0733907
0.0754876
0.0753634
0.0750989
0.0747854
0.0744629
0.0741183
0.0737471
0.0734117
0.0730915
0.0729445
0.075596
0.0754821
0.075174
0.0747989
0.0744001
0.0739602
0.0734714
0.0730002
0.0725438
0.0723146
0.0756953
0.0756
0.0752623
0.0748254
0.0743399
0.0737809
0.0731306
0.072455
0.0717697
0.0713884
0.0757788
0.0757089
0.0753671
0.0748804
0.0743035
0.0735993
0.0727279
0.0717398
0.0706476
0.069934
0.0758444
0.0758018
0.0754927
0.074989
0.0743307
0.0734576
0.0722853
0.0708148
0.0689859
0.0674591
0.0758944
0.0758743
0.0756464
0.0752009
0.0745105
0.0734661
0.0719137
0.0697015
0.0665877
0.0625032
0.0759309
0.0759212
0.0758349
0.0755678
0.0749458
0.0737538
0.0717622
0.068328
0.0634431
0.0514341
0.0760693
0.0760992
0.0757875
0.0756632
0.0756213
0.0756196
0.0756585
0.0757798
0.0760883
0.0760584
0.075625
0.0756024
0.0755678
0.0755699
0.0755545
0.0755528
0.0755649
0.07556
0.075592
0.0756132
0.0754711
0.0752796
0.0753631
0.0754192
0.0754205
0.0754186
0.0754137
0.0753544
0.075268
0.0754571
0.0754146
0.0751699
0.0752674
0.0752957
0.0752929
0.0752907
0.0752891
0.0752572
0.0751562
0.0753972
0.0753367
0.0751234
0.0752253
0.0752186
0.0752125
0.0752097
0.0752104
0.0752127
0.0751065
0.0753147
0.0752462
0.0750746
0.0751807
0.0751575
0.0751574
0.075154
0.0751471
0.0751648
0.0750532
0.0752184
0.0751683
0.0750272
0.0751283
0.0750966
0.0751042
0.0750999
0.0750832
0.0751078
0.0749998
0.075133
0.0751083
0.0749903
0.07508
0.0750407
0.0750521
0.0750466
0.0750235
0.0750536
0.074955
0.0750631
0.0750609
0.0749621
0.0750395
0.0749946
0.0750064
0.0749995
0.0749722
0.0750051
0.0749164
0.0750025
0.0750217
0.074938
0.0750037
0.0749559
0.0749667
0.0749577
0.0749268
0.074959
0.0748786
0.0749464
0.0749894
0.0749164
0.0749709
0.0749217
0.0749298
0.0749182
0.0748837
0.0749124
0.0748391
0.0748927
0.0749639
0.0748982
0.0749414
0.0748908
0.0748946
0.0748794
0.0748413
0.074865
0.0747973
0.0748402
0.0749456
0.0748844
0.0749163
0.0748636
0.0748611
0.0748413
0.0747992
0.0748165
0.0747527
0.0747865
0.0749353
0.0748759
0.0748961
0.07484
0.0748296
0.0748036
0.0747566
0.0747659
0.074704
0.0747296
0.0749337
0.0748735
0.0748811
0.07482
0.0747995
0.0747656
0.074712
0.0747116
0.0746495
0.0746672
0.074942
0.0748785
0.0748718
0.0748033
0.0747703
0.074726
0.0746636
0.0746515
0.0745869
0.0745969
0.0749615
0.0748922
0.0748692
0.0747901
0.0747415
0.0746838
0.0746097
0.0745834
0.0745133
0.0745153
0.0749939
0.0749164
0.074874
0.0747804
0.0747124
0.0746373
0.0745477
0.0745039
0.0744249
0.074418
0.0750409
0.0749531
0.074887
0.074774
0.0746821
0.0745846
0.0744744
0.0744089
0.0743165
0.0742994
0.0751034
0.0750039
0.0749091
0.074771
0.0746494
0.0745231
0.0743857
0.0742926
0.074181
0.0741516
0.0751816
0.0750705
0.074941
0.0747709
0.0746127
0.0744498
0.0742764
0.0741473
0.0740085
0.0739632
0.0752742
0.0751536
0.0749831
0.0747734
0.0745703
0.0743606
0.0741395
0.0739626
0.0737849
0.073718
0.0753781
0.0752523
0.0750358
0.0747782
0.0745207
0.0742516
0.0739666
0.0737241
0.0734898
0.0733914
0.0754878
0.0753638
0.0750994
0.0747859
0.0744634
0.0741189
0.0737476
0.0734122
0.0730922
0.0729453
0.0755961
0.0754825
0.0751745
0.0747994
0.0744006
0.0739608
0.0734721
0.0730008
0.0725446
0.0723155
0.0756953
0.0756003
0.0752626
0.0748258
0.0743405
0.0737816
0.0731315
0.0724558
0.0717706
0.0713896
0.0757788
0.075709
0.0753673
0.0748807
0.0743041
0.0736002
0.072729
0.071741
0.0706489
0.0699358
0.0758442
0.0758017
0.0754926
0.0749892
0.0743314
0.0734588
0.0722869
0.0708168
0.0689882
0.0674621
0.0758941
0.075874
0.0756461
0.0752012
0.0745115
0.073468
0.0719164
0.069705
0.066592
0.0625106
0.0759307
0.0759209
0.0758352
0.075569
0.0749481
0.0737573
0.071767
0.0683345
0.0634517
0.0514543
0.0761055
0.0761375
0.0758273
0.0757034
0.0756616
0.07566
0.0756987
0.0758196
0.0761267
0.0760946
0.0756369
0.0756159
0.0755813
0.0755835
0.0755682
0.0755665
0.0755785
0.0755735
0.0756055
0.0756251
0.0754674
0.0752768
0.0753598
0.0754159
0.0754173
0.0754154
0.0754103
0.0753512
0.0752652
0.0754534
0.0754125
0.0751695
0.0752674
0.075296
0.0752935
0.0752912
0.0752894
0.0752571
0.0751558
0.0753951
0.0753366
0.0751249
0.0752275
0.0752215
0.0752158
0.0752131
0.0752134
0.0752149
0.0751079
0.0753147
0.0752431
0.0750708
0.0751764
0.0751537
0.0751539
0.0751505
0.0751433
0.0751605
0.0750494
0.0752153
0.0751613
0.075017
0.0751161
0.0750844
0.0750919
0.0750877
0.0750711
0.0750956
0.0749896
0.0751261
0.0750989
0.0749764
0.0750634
0.0750238
0.0750347
0.0750293
0.0750066
0.0750368
0.074941
0.0750539
0.0750502
0.0749465
0.0750208
0.0749755
0.0749867
0.0749797
0.0749532
0.0749863
0.0749005
0.0749921
0.0750103
0.0749214
0.0749839
0.0749358
0.0749457
0.0749367
0.0749067
0.0749391
0.0748618
0.074935
0.0749777
0.0748994
0.0749505
0.0749012
0.0749084
0.0748967
0.0748632
0.0748921
0.074822
0.0748806
0.0749523
0.0748815
0.0749214
0.0748708
0.0748735
0.0748583
0.0748213
0.0748449
0.0747808
0.0748273
0.0749344
0.0748687
0.0748973
0.0748447
0.0748412
0.0748213
0.0747803
0.0747974
0.074737
0.0747735
0.0749249
0.0748613
0.0748784
0.0748227
0.0748111
0.074785
0.074739
0.074748
0.0746893
0.0747171
0.0749242
0.0748604
0.0748649
0.0748043
0.0747826
0.0747485
0.0746959
0.074695
0.0746358
0.0746556
0.0749336
0.0748669
0.0748575
0.0747895
0.0747552
0.0747107
0.0746493
0.0746365
0.0745744
0.0745862
0.0749544
0.0748825
0.0748569
0.0747782
0.0747283
0.0746703
0.0745971
0.0745701
0.0745021
0.0745057
0.0749885
0.0749089
0.074864
0.0747707
0.0747014
0.0746258
0.074537
0.0744925
0.0744151
0.0744096
0.0750375
0.0749481
0.0748796
0.0747668
0.0746734
0.0745754
0.0744658
0.0743995
0.0743083
0.0742924
0.0751025
0.075002
0.0749047
0.0747665
0.0746433
0.0745164
0.0743794
0.0742854
0.0741747
0.0741461
0.0751836
0.075072
0.0749401
0.0747696
0.0746096
0.0744459
0.0742727
0.0741427
0.0740044
0.0739596
0.0752795
0.0751588
0.0749862
0.0747757
0.0745708
0.0743601
0.0741389
0.073961
0.0737835
0.0737168
0.0753864
0.0752613
0.0750433
0.0747848
0.0745255
0.0742551
0.0739697
0.0737262
0.0734917
0.0733935
0.0754979
0.0753759
0.0751115
0.0747973
0.0744728
0.0741267
0.0737549
0.0734184
0.0730981
0.0729514
0.0756058
0.0754956
0.0751906
0.0748155
0.0744146
0.0739728
0.0734832
0.073011
0.0725548
0.072326
0.0757015
0.0756111
0.0752807
0.0748453
0.0743573
0.0737954
0.0731441
0.0724679
0.0717837
0.0714037
0.0757782
0.0757136
0.0753834
0.0748991
0.0743182
0.0736096
0.0727365
0.0717486
0.0706591
0.0699484
0.0758352
0.075797
0.0754996
0.0749964
0.0743304
0.07345
0.0722746
0.0708047
0.0689807
0.0674593
0.0758778
0.0758603
0.0756332
0.0751773
0.0744718
0.073415
0.0718553
0.0696415
0.0665318
0.0624581
0.0759092
0.0758976
0.0757835
0.075482
0.0748331
0.0736213
0.0716151
0.0681719
0.063286
0.0512971
0.0762246
0.0762539
0.0759485
0.0758256
0.0757842
0.0757826
0.0758209
0.0759408
0.0762431
0.0762136
0.0756332
0.0756071
0.0755779
0.0755798
0.0755646
0.0755629
0.0755749
0.0755701
0.0755967
0.0756214
0.0754175
0.0752195
0.0753044
0.0753582
0.0753596
0.0753577
0.0753527
0.0752957
0.0752079
0.0754035
0.0753824
0.0751394
0.0752388
0.0752655
0.0752634
0.0752611
0.0752589
0.0752285
0.0751256
0.0753651
0.0753307
0.0751266
0.0752317
0.0752254
0.0752204
0.0752176
0.0752171
0.0752189
0.0751094
0.075309
0.0752496
0.075088
0.0751957
0.0751737
0.0751744
0.0751709
0.0751632
0.0751796
0.0750664
0.0752221
0.0751747
0.0750422
0.0751429
0.0751125
0.07512
0.0751158
0.075099
0.0751222
0.0750148
0.0751397
0.0751173
0.0750076
0.0750963
0.0750586
0.0750693
0.0750638
0.0750412
0.0750694
0.0749719
0.075073
0.0750718
0.0749809
0.0750575
0.0750144
0.0750254
0.0750183
0.074992
0.0750225
0.0749344
0.0750151
0.0750334
0.0749561
0.0750212
0.0749756
0.0749853
0.0749762
0.0749464
0.074976
0.0748959
0.0749595
0.0750007
0.0749329
0.0749867
0.0749397
0.0749468
0.074935
0.0749017
0.0749278
0.0748549
0.0749053
0.0749745
0.0749132
0.0749556
0.0749071
0.0749099
0.0748944
0.0748576
0.0748786
0.0748118
0.0748516
0.0749557
0.074898
0.074929
0.0748784
0.0748753
0.0748549
0.074814
0.0748284
0.074766
0.0747969
0.074945
0.0748884
0.0749077
0.0748537
0.0748426
0.0748161
0.0747699
0.0747764
0.0747162
0.0747394
0.0749431
0.0748851
0.0748919
0.0748325
0.0748115
0.0747769
0.074724
0.0747208
0.0746606
0.0746768
0.0749514
0.0748896
0.0748825
0.0748152
0.0747816
0.0747365
0.0746747
0.0746599
0.0745971
0.0746064
0.0749716
0.0749037
0.0748803
0.0748018
0.0747526
0.0746939
0.0746203
0.0745914
0.0745231
0.074525
0.0750056
0.0749293
0.0748866
0.0747928
0.074724
0.0746477
0.0745583
0.0745123
0.0744348
0.0744284
0.0750553
0.0749685
0.0749023
0.0747883
0.0746952
0.0745962
0.074486
0.0744184
0.0743274
0.0743111
0.0751222
0.0750236
0.0749285
0.0747885
0.0746652
0.0745371
0.0743994
0.0743042
0.0741939
0.0741656
0.0752064
0.0750964
0.0749665
0.0747936
0.074633
0.0744677
0.0742936
0.0741625
0.0740249
0.073981
0.0753066
0.0751876
0.0750168
0.0748035
0.0745972
0.0743846
0.0741622
0.0739833
0.0738069
0.0737416
0.0754185
0.0752958
0.0750799
0.0748183
0.0745567
0.074284
0.0739971
0.0737526
0.0735198
0.0734237
0.0755342
0.0754162
0.0751555
0.0748387
0.0745111
0.0741619
0.0737882
0.0734508
0.0731332
0.0729896
0.0756431
0.0755398
0.0752425
0.0748666
0.0744615
0.0740154
0.0735235
0.0730508
0.072599
0.0723753
0.0757336
0.0756544
0.0753393
0.074906
0.0744118
0.0738437
0.0731893
0.0725138
0.0718376
0.0714663
0.075797
0.0757475
0.0754433
0.0749632
0.0743719
0.073653
0.0727757
0.0717905
0.0707161
0.0700215
0.0758329
0.075812
0.0755468
0.0750428
0.074357
0.0734599
0.0722781
0.0708136
0.0690164
0.0675256
0.0758471
0.0758431
0.07563
0.0751501
0.0744092
0.0733278
0.0717582
0.0695491
0.0664743
0.0624402
0.0758538
0.0758323
0.0756586
0.0752791
0.0745788
0.0733443
0.071329
0.0678833
0.0630193
0.0510083
0.0765589
0.0765802
0.0762521
0.076134
0.076094
0.0760924
0.0761292
0.0762443
0.0765693
0.0765475
0.0756953
0.0756404
0.0756057
0.075613
0.0755979
0.0755962
0.0756081
0.0755979
0.0756301
0.0756834
0.0753548
0.0751333
0.0752181
0.0752737
0.0752746
0.0752727
0.0752681
0.0752093
0.0751215
0.0753408
0.0752967
0.0750369
0.0751376
0.0751659
0.0751641
0.0751618
0.0751593
0.0751273
0.075023
0.0752794
0.0752426
0.0750206
0.0751244
0.0751205
0.0751162
0.0751134
0.0751122
0.0751116
0.0750034
0.075221
0.0751635
0.0749825
0.0750852
0.0750652
0.0750654
0.075062
0.0750547
0.075069
0.0749608
0.0751361
0.0750951
0.0749448
0.0750387
0.0750098
0.0750153
0.0750111
0.0749964
0.075018
0.074917
0.0750598
0.0750465
0.0749212
0.075003
0.074967
0.0749749
0.0749695
0.0749497
0.0749762
0.0748854
0.075001
0.0750097
0.0749049
0.0749749
0.0749341
0.0749421
0.0749349
0.0749116
0.0749399
0.0748584
0.0749511
0.0749791
0.0748895
0.0749486
0.0749052
0.0749117
0.0749026
0.0748759
0.0749029
0.0748292
0.0749033
0.0749533
0.074875
0.0749233
0.0748784
0.0748821
0.0748702
0.0748402
0.0748638
0.0747967
0.0748555
0.0749334
0.0748631
0.0749006
0.074854
0.0748535
0.0748379
0.0748044
0.0748231
0.0747612
0.0748074
0.0749202
0.0748549
0.0748817
0.0748327
0.0748263
0.0748058
0.0747681
0.0747806
0.0747222
0.0747577
0.0749143
0.0748513
0.0748672
0.0748145
0.0748004
0.0747736
0.0747304
0.0747353
0.0746782
0.0747047
0.0749167
0.0748537
0.0748577
0.0747994
0.0747754
0.0747404
0.07469
0.0746856
0.0746275
0.0746464
0.0749292
0.0748635
0.0748541
0.0747876
0.0747512
0.0747056
0.0746458
0.0746299
0.0745681
0.0745803
0.0749537
0.0748829
0.0748576
0.0747796
0.0747275
0.0746681
0.0745961
0.0745662
0.0744979
0.0745028
0.0749922
0.0749142
0.0748694
0.0747758
0.0747042
0.0746269
0.0745387
0.0744916
0.0744134
0.07441
0.075047
0.0749599
0.0748911
0.074777
0.0746807
0.0745805
0.0744709
0.0744022
0.0743099
0.0742965
0.0751201
0.0750227
0.0749242
0.0747835
0.0746567
0.074527
0.0743894
0.0742928
0.0741808
0.0741553
0.0752122
0.0751049
0.0749703
0.0747961
0.0746313
0.074464
0.0742894
0.0741564
0.0740171
0.0739759
0.0753221
0.0752077
0.0750308
0.0748152
0.0746041
0.0743887
0.0741653
0.0739839
0.0738059
0.0737434
0.0754453
0.0753296
0.0751069
0.074842
0.0745747
0.0742982
0.0740098
0.073762
0.0735281
0.0734352
0.0755723
0.075465
0.075199
0.0748783
0.074544
0.0741896
0.0738137
0.0734725
0.0731549
0.0730152
0.0756882
0.0756016
0.0753071
0.0749282
0.0745145
0.0740611
0.073566
0.0730894
0.0726402
0.0724225
0.0757764
0.0757221
0.0754303
0.0749983
0.0744918
0.0739122
0.0732533
0.0725751
0.0719074
0.0715471
0.0758281
0.0758089
0.075563
0.0750947
0.0744839
0.0737459
0.0728617
0.0718775
0.0708261
0.0701553
0.0758508
0.0758666
0.0756924
0.0752088
0.0744911
0.0735612
0.0723684
0.0709127
0.0691743
0.0677409
0.0758368
0.0758715
0.0757475
0.0752789
0.0744884
0.0733559
0.0717679
0.0695773
0.0666318
0.0627617
0.0758022
0.0757751
0.0755807
0.0751234
0.0743281
0.0730273
0.0709901
0.067576
0.0629316
0.0513829
0.0762815
0.0765589
0.0762237
0.0761032
0.0760654
0.0760638
0.0760984
0.0762161
0.0765488
0.0762716
0.0757111
0.0756949
0.0756317
0.075634
0.0756204
0.0756186
0.075629
0.0756238
0.0756846
0.0756999
0.0755902
0.0753539
0.0754152
0.0754635
0.0754652
0.0754633
0.0754578
0.0754063
0.0753423
0.0755768
0.0755586
0.0752951
0.0753792
0.0754072
0.0754071
0.0754048
0.0754004
0.0753686
0.0752813
0.075542
0.0754594
0.0752402
0.0753263
0.0753295
0.0753268
0.075324
0.0753212
0.0753133
0.0752234
0.0754385
0.0753348
0.0751602
0.0752438
0.0752339
0.0752335
0.07523
0.0752235
0.0752274
0.0751391
0.0753082
0.0752321
0.0750908
0.0751672
0.0751497
0.0751522
0.0751476
0.0751364
0.0751463
0.0750635
0.0751979
0.0751565
0.0750409
0.0751079
0.0750842
0.0750876
0.0750817
0.0750667
0.0750808
0.0750055
0.0751125
0.0750978
0.0750027
0.0750596
0.0750313
0.075034
0.0750267
0.0750086
0.0750245
0.0749567
0.0750409
0.0750495
0.0749699
0.0750171
0.0749854
0.0749867
0.0749773
0.0749561
0.0749714
0.0749102
0.074976
0.0750103
0.0749416
0.0749798
0.0749453
0.0749441
0.0749316
0.0749071
0.0749201
0.0748639
0.0749155
0.0749803
0.0749187
0.0749482
0.0749105
0.0749052
0.0748893
0.0748607
0.0748701
0.0748171
0.0748583
0.0749592
0.0749017
0.0749223
0.0748806
0.0748698
0.0748491
0.0748158
0.0748204
0.074769
0.074802
0.0749469
0.0748909
0.0749019
0.0748552
0.0748372
0.0748102
0.0747712
0.0747693
0.0747181
0.0747437
0.0749443
0.0748873
0.0748878
0.0748343
0.0748073
0.0747719
0.0747255
0.0747151
0.0746622
0.0746808
0.0749531
0.0748927
0.0748808
0.0748183
0.0747795
0.0747332
0.0746769
0.074656
0.0745991
0.074611
0.0749751
0.0749091
0.0748822
0.0748073
0.0747535
0.0746931
0.0746239
0.0745898
0.0745264
0.074531
0.0750126
0.0749389
0.0748933
0.0748021
0.074729
0.0746505
0.0745644
0.0745137
0.0744406
0.0744371
0.0750681
0.074985
0.0749157
0.0748031
0.0747059
0.0746042
0.0744961
0.0744243
0.0743372
0.0743242
0.0751437
0.0750507
0.0749515
0.0748115
0.0746838
0.0745524
0.0744157
0.0743168
0.07421
0.0741852
0.0752404
0.0751387
0.0750025
0.074828
0.0746626
0.0744935
0.0743191
0.0741846
0.0740505
0.0740105
0.0753563
0.07525
0.0750708
0.074854
0.0746423
0.0744251
0.0742014
0.0740191
0.0738469
0.0737861
0.0754851
0.0753818
0.0751577
0.0748912
0.0746235
0.0743455
0.0740563
0.0738086
0.0735816
0.0734909
0.0756138
0.0755243
0.0752633
0.0749425
0.0746081
0.074253
0.0738765
0.0735368
0.0732283
0.0730919
0.075724
0.0756588
0.0753857
0.0750131
0.0746002
0.0741469