/*--------------------------------*- C++ -*----------------------------------*\
| =========                 |                                                 |
| \\      /  F ield         | OpenFOAM: The Open Source CFD Toolbox           |
|  \\    /   O peration     | Version:  4.1                                   |
|   \\  /    A nd           | Web:      www.OpenFOAM.org                      |
|    \\/     M anipulation  |                                                 |
\*---------------------------------------------------------------------------*/
FoamFile
{
    version     2.0;
    format      ascii;
    class       surfaceScalarField;
    location    "900";
    object      phi;
}
// * * * * * * * * * * * * * * * * * * * * * * * * * * * * * * * * * * * * * //

dimensions      [0 3 -1 0 0 0 0];

internalField   nonuniform List<scalar> 
33700
(
4.93064e-05
0.000901464
4.92304e-05
2.30256e-05
0.000971703
5.45794e-05
8.36335e-06
0.000957912
5.67518e-05
3.11684e-06
0.000948735
5.65136e-05
8.98056e-08
0.000946287
5.67414e-05
-2.94362e-06
0.000946294
5.67407e-05
-8.20334e-06
0.000948749
5.65121e-05
-2.28782e-05
0.000957918
5.6758e-05
-4.92143e-05
0.000971683
5.46549e-05
0.000901548
4.92393e-05
3.15329e-05
0.000838561
3.13757e-05
2.39321e-05
0.000939467
3.98427e-05
1.34666e-05
0.000926443
4.19417e-05
6.15418e-06
0.00091482
4.1234e-05
2.40451e-07
0.000910596
4.16117e-05
-5.6869e-06
0.000910618
4.16104e-05
-1.30383e-05
0.000914873
4.12346e-05
-2.3547e-05
0.000926498
4.19363e-05
-3.12647e-05
0.000939511
3.98964e-05
0.000838949
3.13382e-05
1.63682e-05
0.000806088
1.61136e-05
1.70258e-05
0.000914868
2.39523e-05
1.18303e-05
0.000906517
2.51319e-05
6.10763e-06
0.000896033
2.45206e-05
4.07546e-07
0.000891302
2.50047e-05
-5.31702e-06
0.000891353
2.50006e-05
-1.11185e-05
0.00089617
2.45159e-05
-1.64278e-05
0.000906694
2.5125e-05
-1.59576e-05
0.000915023
2.40283e-05
0.000806887
1.61098e-05
9.04133e-06
0.000788393
8.66718e-06
1.20891e-05
0.00089723
1.46052e-05
9.63908e-06
0.000894488
1.44948e-05
5.28691e-06
0.000885686
1.47142e-05
6.07501e-07
0.000880657
1.53393e-05
-4.10835e-06
0.000880749
1.53357e-05
-8.57975e-06
0.000885968
1.46903e-05
-1.12124e-05
0.000894871
1.4471e-05
-8.4071e-06
0.000897559
1.46725e-05
0.000789777
8.71013e-06
5.68698e-06
0.000777566
5.15679e-06
9.09326e-06
0.000884467
9.37431e-06
8.287e-06
0.000887565
7.74789e-06
4.79551e-06
0.00088012
9.07573e-06
8.59087e-07
0.000874812
9.80146e-06
-3.11736e-06
0.000874955
9.79062e-06
-6.80326e-06
0.000880642
9.03137e-06
-7.86452e-06
0.000888284
7.66667e-06
-4.75403e-06
0.000885058
9.40628e-06
0.000779777
5.25366e-06
4.467e-06
0.00076939
3.72822e-06
7.05677e-06
0.000874993
6.9049e-06
7.31417e-06
0.000883508
3.81962e-06
4.52583e-06
0.000876886
6.04399e-06
1.18569e-06
0.000871486
6.68692e-06
-2.21856e-06
0.000871717
6.66503e-06
-5.29294e-06
0.00087775
5.98834e-06
-5.39887e-06
0.000884718
3.69066e-06
-3.13492e-06
0.000875942
6.86851e-06
0.000772785
3.86521e-06
4.2588e-06
0.00076191
3.24118e-06
5.76861e-06
0.000867578
5.92614e-06
6.63309e-06
0.000880894
1.77123e-06
4.33313e-06
0.000874573
4.63397e-06
1.6216e-06
0.000869245
4.9747e-06
-1.25837e-06
0.000869658
4.96061e-06
-3.88251e-06
0.000875832
4.56404e-06
-3.45736e-06
0.000882706
1.60692e-06
-2.46733e-06
0.000869003
5.96599e-06
0.000766867
3.45913e-06
4.52719e-06
0.000754242
3.16117e-06
4.78332e-06
0.000861733
5.6092e-06
6.33034e-06
0.000878797
5.69579e-07
4.40375e-06
0.000872526
3.9936e-06
2.15458e-06
0.000867483
4.03175e-06
-3.02493e-07
0.000868122
4.01448e-06
-2.61868e-06
0.000874229
3.94015e-06
-1.88281e-06
0.000881451
5.38173e-07
-2.05522e-06
0.000863533
5.65816e-06
0.000761467
3.35341e-06
4.97069e-06
0.000746139
3.15063e-06
4.30757e-06
0.000857047
5.36771e-06
6.37052e-06
0.000876899
-1.4581e-07
4.79663e-06
0.00087046
3.65758e-06
2.83987e-06
0.000866054
3.40413e-06
7.53431e-07
0.000866862
3.36579e-06
-1.48301e-06
0.000872834
3.65131e-06
-5.18231e-07
0.000880612
-1.08828e-07
-1.63953e-06
0.000859048
5.62168e-06
0.000756543
3.29193e-06
5.40385e-06
0.000737805
2.94704e-06
4.54494e-06
0.000852635
5.28614e-06
6.80556e-06
0.000875092
-4.38081e-07
5.47758e-06
0.000868302
3.50208e-06
3.77984e-06
0.000864783
2.985e-06
1.95165e-06
0.000865782
2.92635e-06
-4.44263e-07
0.000871702
3.54562e-06
6.03866e-07
0.000880095
-5.14425e-07
-1.11198e-06
0.000855201
5.57733e-06
0.000752227
3.21167e-06
5.96225e-06
0.000729183
2.6739e-06
5.33067e-06
0.00084804
5.24158e-06
7.69176e-06
0.000873201
-4.56436e-07
6.46725e-06
0.000866072
3.46905e-06
4.98379e-06
0.000863591
2.68965e-06
3.26917e-06
0.000864902
2.61037e-06
7.61241e-07
0.000870702
3.52261e-06
1.68874e-06
0.000879851
-6.68738e-07
-4.15212e-07
0.000851763
5.55502e-06
0.000748706
3.11387e-06
6.78404e-06
0.000719967
2.4457e-06
6.44049e-06
0.000843206
5.19005e-06
9.00515e-06
0.000871061
-4.10857e-07
7.81639e-06
0.000863796
3.47785e-06
6.55535e-06
0.000862395
2.47066e-06
4.91283e-06
0.000864187
2.37134e-06
2.27879e-06
0.000869803
3.54869e-06
2.94656e-06
0.000879896
-6.98751e-07
3.62274e-07
0.000848819
5.54088e-06
0.000745985
3.09103e-06
7.9795e-06
0.000709719
2.28212e-06
7.88628e-06
0.000838214
5.0982e-06
1.08003e-05
0.000868564
-4.04072e-07
9.69832e-06
0.000861467
3.4447e-06
8.6387e-06
0.000861183
2.28546e-06
7.02704e-06
0.000863658
2.15427e-06
4.15972e-06
0.00086912
3.56398e-06
4.46656e-06
0.000880308
-7.05806e-07
1.24006e-06
0.000846605
5.45414e-06
0.000744099
3.13357e-06
9.61492e-06
0.000697991
2.12567e-06
9.90448e-06
0.000832986
4.95169e-06
1.31797e-05
0.000865688
-3.84963e-07
1.22634e-05
0.000859048
3.34997e-06
1.13503e-05
0.000859988
2.12233e-06
9.70461e-06
0.000863371
1.94743e-06
6.52195e-06
0.000868775
3.54218e-06
6.35355e-06
0.000881197
-7.06647e-07
2.29885e-06
0.000845373
5.29915e-06
0.0007432
3.20664e-06
1.17786e-05
0.000684258
1.96839e-06
1.26557e-05
0.000827338
4.78424e-06
1.63762e-05
0.000862318
-3.36517e-07
1.56808e-05
0.000856506
3.25107e-06
1.48865e-05
0.000858797
1.99943e-06
1.314e-05
0.00086336
1.77216e-06
9.50601e-06
0.000868921
3.501e-06
8.72581e-06
0.000882697
-7.07319e-07
3.58908e-06
0.000845346
5.17661e-06
0.000743497
3.29997e-06
1.46108e-05
0.000667811
1.85008e-06
1.63412e-05
0.000820973
4.64884e-06
2.0629e-05
0.000858252
-2.06843e-07
2.02018e-05
0.000853757
3.19174e-06
1.95112e-05
0.00085755
1.95289e-06
1.75953e-05
0.000863634
1.65567e-06
1.33682e-05
0.000869687
3.47439e-06
1.1758e-05
0.000884991
-6.70938e-07
5.22163e-06
0.000846826
5.06828e-06
0.000745305
3.42311e-06
1.82897e-05
0.00064771
1.82564e-06
2.1273e-05
0.000813417
4.58607e-06
2.6214e-05
0.000853262
6.3246e-08
2.61596e-05
0.000850626
3.19978e-06
2.55492e-05
0.000856149
2.02552e-06
2.33726e-05
0.000864189
1.63522e-06
1.8392e-05
0.000871183
3.49772e-06
1.56342e-05
0.0008883
-5.38764e-07
7.34329e-06
0.000850141
4.98936e-06
0.000749036
3.62108e-06
2.30221e-05
0.00062271
1.99105e-06
2.78012e-05
0.000803978
4.67399e-06
3.35395e-05
0.000847035
5.03117e-07
3.39671e-05
0.000846893
3.32064e-06
3.34081e-05
0.000854467
2.25531e-06
3.08601e-05
0.000865003
1.74812e-06
2.49112e-05
0.000873536
3.60986e-06
2.06192e-05
0.000892886
-2.81178e-07
1.00943e-05
0.000855688
4.99072e-06
0.000755183
3.95717e-06
2.90102e-05
0.000591234
2.47993e-06
3.64032e-05
0.000791576
5.02195e-06
4.31254e-05
0.000839142
1.185e-06
4.41345e-05
0.000842277
3.62089e-06
4.36082e-05
0.00085232
2.68827e-06
4.05561e-05
0.000866018
2.05107e-06
3.33631e-05
0.00087688
3.86336e-06
2.70901e-05
0.000899013
1.60731e-07
1.36786e-05
0.000863982
5.13244e-06
0.000764374
4.4997e-06
3.64064e-05
0.000551401
3.43981e-06
4.76752e-05
0.000774531
5.78944e-06
5.56237e-05
0.000828975
2.2313e-06
5.7303e-05
0.000836413
4.1991e-06
5.67885e-05
0.000849451
3.39875e-06
5.31045e-05
0.000867106
2.61132e-06
4.43452e-05
0.000881332
4.32313e-06
3.55396e-05
0.00090697
8.64019e-07
1.83857e-05
0.000875656
5.49705e-06
0.000777437
5.33494e-06
4.52517e-05
0.000501104
5.05808e-06
6.22331e-05
0.00075037
7.19111e-06
7.18074e-05
0.000815603
3.81152e-06
7.42761e-05
0.000828769
5.19087e-06
7.37793e-05
0.000845461
4.50205e-06
6.93654e-05
0.000867995
3.54212e-06
5.86854e-05
0.000886941
5.08902e-06
4.66342e-05
0.000917123
1.91648e-06
2.46189e-05
0.000891496
6.19427e-06
0.000795484
6.58661e-06
5.53355e-05
0.000438192
7.58856e-06
8.05221e-05
0.0007157
9.49474e-06
9.25338e-05
0.00079749
6.11464e-06
9.60055e-05
0.000818528
6.78466e-06
9.56519e-05
0.000839685
6.14718e-06
9.0478e-05
0.000868176
5.01166e-06
7.7517e-05
0.000893611
6.31022e-06
6.13284e-05
0.000929884
3.44751e-06
3.29573e-05
0.000912504
7.38462e-06
0.000820024
8.43252e-06
6.59556e-05
0.000361045
1.12013e-05
0.00010252
0.000666208
1.29377e-05
0.00011857
0.000772048
9.4036e-06
0.000123583
0.000804306
9.22199e-06
0.000123716
0.000831026
8.543e-06
0.000117951
0.00086671
7.24902e-06
0.000102453
0.000900919
8.21237e-06
8.10501e-05
0.000945636
5.67346e-06
4.43111e-05
0.000939972
9.29501e-06
0.000853231
1.11216e-05
7.55649e-05
0.000269791
1.56938e-05
0.000127085
0.000597128
1.75656e-05
0.000150266
0.000734895
1.39815e-05
0.000158246
0.000783474
1.28655e-05
0.000159578
0.000817687
1.20247e-05
0.000153809
0.000861953
1.05463e-05
0.000135803
0.000907833
1.11136e-05
0.000108004
0.000964574
8.88527e-06
6.00986e-05
0.000975642
1.22626e-05
0.00089833
1.50193e-05
8.14089e-05
0.000168244
2.01342e-05
0.000151033
0.00050459
2.29161e-05
0.000186777
0.000679063
2.00939e-05
0.000201016
0.000750988
1.8257e-05
0.000205228
0.000796461
1.70295e-05
0.000200742
0.000851152
1.53075e-05
0.000180944
0.000912228
1.54273e-05
0.000145766
0.000986283
1.34972e-05
8.28888e-05
0.00102179
1.67617e-05
0.000960561
2.06789e-05
7.87371e-05
6.73324e-05
2.21608e-05
0.000167897
0.000387766
2.76607e-05
0.000224712
0.000594376
2.78746e-05
0.000252179
0.000697321
2.62073e-05
0.000263211
0.000761184
2.42575e-05
0.000262564
0.000829745
2.20749e-05
0.000242937
0.000910215
2.16657e-05
0.00020014
0.00100907
2.00454e-05
0.00011694
0.00108157
2.3451e-05
0.00104868
2.88502e-05
5.89449e-05
-1.14822e-05
1.98465e-05
0.000167614
0.000249767
2.93254e-05
0.000256737
0.00046857
3.66817e-05
0.000309145
0.000607207
3.77081e-05
0.000335209
0.000700179
3.49505e-05
0.000343889
0.000789462
3.16216e-05
0.000329155
0.000894533
3.04473e-05
0.000281117
0.00102791
2.92244e-05
0.000173023
0.00115639
3.33315e-05
0.00118077
4.0976e-05
1.1572e-05
-4.94408e-05
2.6394e-05
0.000140915
8.51228e-05
3.53104e-05
0.000271894
0.000289024
4.85726e-05
0.000365558
0.000460195
5.33577e-05
0.000422158
0.000593417
5.01768e-05
0.000451367
0.000715371
4.49112e-05
0.000450974
0.000852571
4.23906e-05
0.000404786
0.00103267
4.14945e-05
0.00026861
0.00124527
4.73631e-05
0.00139087
5.85531e-05
-3.0335e-06
-7.749e-05
3.11911e-05
0.000101132
-6.71726e-05
4.82012e-05
0.000251618
7.00976e-05
6.84847e-05
0.000392925
0.000241245
7.76789e-05
0.000505826
0.000407014
7.35454e-05
0.000583664
0.000573093
6.44906e-05
0.000624267
0.000753169
5.887e-05
0.000596227
0.00100314
5.76392e-05
0.000476239
0.00129814
6.7183e-05
0.00178228
8.488e-05
7.51196e-05
8.47327e-06
-0.000160969
0.000175206
2.70245e-05
-0.000194167
0.000282691
6.18151e-05
-9.90823e-05
0.00040821
8.8518e-05
2.73363e-05
0.000558994
9.58697e-05
0.000160469
0.000711323
8.89673e-05
0.000331898
0.000850359
7.90211e-05
0.000535208
0.000903208
7.50429e-05
0.000875338
0.000891452
8.48641e-05
0.00122512
0.000119452
0.00255431
5.46449e-05
0.000971635
2.29516e-05
2.03197e-05
0.00106864
2.02613e-05
6.26416e-06
0.00104969
2.11191e-05
2.19267e-06
0.00103926
2.13271e-05
6.86377e-08
0.00103741
2.14554e-05
-2.0603e-06
0.00103742
2.14549e-05
-6.13483e-06
0.00103926
2.13253e-05
-2.01693e-05
0.00104967
2.11204e-05
-5.44963e-05
0.00106867
2.03144e-05
0.000971798
2.29458e-05
3.99856e-05
0.000939282
2.37466e-05
2.23714e-05
0.00110391
2.21942e-05
1.28031e-05
0.0010785
2.27026e-05
5.83753e-06
0.00106444
2.30196e-05
2.48825e-07
0.00106138
2.3236e-05
-5.3519e-06
0.0010614
2.32351e-05
-1.2344e-05
0.00106447
2.3023e-05
-2.19306e-05
0.0010785
2.27047e-05
-3.9527e-05
0.00110393
2.22347e-05
0.000939908
2.37031e-05
2.41864e-05
0.000914493
1.67186e-05
1.71645e-05
0.00111803
1.68642e-05
1.1509e-05
0.00109293
1.63649e-05
5.77048e-06
0.00107831
1.6395e-05
4.23031e-07
0.00107515
1.65818e-05
-4.95539e-06
0.0010752
1.65785e-05
-1.07713e-05
0.00107841
1.63953e-05
-1.65206e-05
0.001093
1.63684e-05
-2.368e-05
0.00111822
1.68972e-05
0.000915643
1.66967e-05
1.49508e-05
0.000896575
1.16364e-05
1.44738e-05
0.00111907
1.40364e-05
9.62392e-06
0.00109937
1.29079e-05
4.779e-06
0.00108511
1.27593e-05
6.06152e-07
0.00108168
1.29815e-05
-3.61194e-06
0.00108178
1.2977e-05
-8.5824e-06
0.00108532
1.27475e-05
-1.35708e-05
0.00109957
1.28997e-05
-1.42746e-05
0.00111955
1.40569e-05
0.000898435
1.16453e-05
9.86197e-06
0.000883412
8.45705e-06
1.34996e-05
0.00111192
1.28854e-05
8.74442e-06
0.00110076
1.11123e-05
4.35039e-06
0.00108756
1.10255e-05
8.34184e-07
0.00108367
1.13345e-05
-2.74798e-06
0.00108383
1.1318e-05
-7.31515e-06
0.0010879
1.10254e-05
-1.23179e-05
0.00110112
1.1112e-05
-8.95368e-06
0.00111267
1.2918e-05
0.00088625
8.48659e-06
7.58659e-06
0.000873382
6.17097e-06
1.27336e-05
0.00110178
1.18968e-05
8.09307e-06
0.00109973
9.48469e-06
4.23726e-06
0.00108788
9.57108e-06
1.11734e-06
0.00108357
9.90519e-06
-2.08679e-06
0.00108381
9.88299e-06
-6.15991e-06
0.00108836
9.5963e-06
-1.10904e-05
0.00110024
9.50095e-06
-6.3234e-06
0.00110292
1.18587e-05
0.000877549
6.24475e-06
6.86043e-06
0.000865217
4.54363e-06
1.18271e-05
0.00109203
1.07131e-05
7.48144e-06
0.00109782
8.02827e-06
4.24478e-06
0.00108734
8.40911e-06
1.46755e-06
0.0010828
8.51561e-06
-1.38695e-06
0.00108307
8.5547e-06
-4.95148e-06
0.00108809
8.40105e-06
-9.86796e-06
0.00109874
8.02394e-06
-5.25295e-06
0.00109339
1.08786e-05
0.000871175
4.58209e-06
6.84991e-06
0.000858364
3.16274e-06
1.17821e-05
0.00108242
1.02803e-05
7.25812e-06
0.00109601
6.89799e-06
4.44727e-06
0.00108653
7.61564e-06
1.93496e-06
0.00108184
7.50677e-06
-6.7169e-07
0.00108215
7.54067e-06
-3.91218e-06
0.00108774
7.53141e-06
-8.84301e-06
0.00109734
6.86836e-06
-4.71646e-06
0.00108474
1.01894e-05
0.000866465
3.34859e-06
7.04981e-06
0.000852338
2.12701e-06
1.20925e-05
0.00107265
1.01016e-05
7.55708e-06
0.00109427
6.13953e-06
4.90596e-06
0.00108574
7.10389e-06
2.56565e-06
0.00108077
6.81617e-06
4.86786e-08
0.00108128
6.7526e-06
-3.0371e-06
0.00108737
7.10676e-06
-7.95553e-06
0.00109613
6.02517e-06
-4.33047e-06
0.00107699
9.74213e-06
0.000863012
2.41758e-06
7.52376e-06
0.000846189
1.57486e-06
1.19348e-05
0.0010642
9.3234e-06
8.0838e-06
0.00109221
5.46843e-06
5.58531e-06
0.00108497
6.7734e-06
3.36954e-06
0.00107976
6.2103e-06
8.90242e-07
0.00108058
6.11376e-06
-2.09175e-06
0.00108696
6.93723e-06
-6.83588e-06
0.0010951
5.26826e-06
-3.82552e-06
0.00107036
9.20644e-06
0.000860534
1.86808e-06
8.18543e-06
0.000839296
1.38667e-06
1.17825e-05
0.00105747
8.38087e-06
8.78585e-06
0.00108999
4.76807e-06
6.49902e-06
0.00108421
6.51801e-06
4.41095e-06
0.00107887
5.66682e-06
2.00163e-06
0.00108003
5.57488e-06
-9.37045e-07
0.00108678
6.64663e-06
-5.35221e-06
0.00109434
4.50969e-06
-3.23508e-06
0.00106537
8.43278e-06
0.000858816
1.60105e-06
9.04251e-06
0.000831423
1.28361e-06
1.21107e-05
0.00105196
7.63644e-06
9.80064e-06
0.00108776
4.13935e-06
7.75825e-06
0.00108341
6.32889e-06
5.76927e-06
0.0010782
5.13633e-06
3.40143e-06
0.00107972
5.05007e-06
4.04285e-07
0.00108699
6.34996e-06
-3.80616e-06
0.001094
3.85411e-06
-2.55568e-06
0.00106187
7.79335e-06
0.000857904
1.45288e-06
1.01522e-05
0.000822437
1.12566e-06
1.31008e-05
0.00104692
7.2032e-06
1.12738e-05
0.00108554
3.65044e-06
9.45012e-06
0.00108251
6.18104e-06
7.53357e-06
0.00107769
4.72668e-06
5.15283e-06
0.00107963
4.63516e-06
2.03416e-06
0.00108751
6.166e-06
-2.15425e-06
0.00109416
3.33647e-06
-1.6879e-06
0.00105955
7.31711e-06
0.00085802
1.33617e-06
1.15583e-05
0.00081204
9.75169e-07
1.4636e-05
0.00104192
6.88206e-06
1.33416e-05
0.00108309
3.36988e-06
1.16955e-05
0.00108144
6.06658e-06
9.84489e-06
0.00107722
4.4459e-06
7.40459e-06
0.00107972
4.31046e-06
4.07079e-06
0.00108837
6.0306e-06
-2.66955e-07
0.00109487
2.92718e-06
-6.05792e-07
0.00105826
6.94443e-06
0.000859383
1.24443e-06
1.33589e-05
0.000799778
8.84671e-07
1.67789e-05
0.00103669
6.60851e-06
1.61009e-05
0.00108027
3.1731e-06
1.46605e-05
0.00108014
6.0075e-06
1.28705e-05
0.00107677
4.2575e-06
1.0322e-05
0.00108
4.05217e-06
6.66053e-06
0.0010896
5.93673e-06
1.98991e-06
0.00109625
2.59888e-06
6.49815e-07
0.00105815
6.63746e-06
0.000862114
1.22755e-06
1.57113e-05
0.000785059
8.71426e-07
1.97236e-05
0.00103092
6.41995e-06
1.97366e-05
0.001077
3.05935e-06
1.85493e-05
0.00107854
5.99153e-06
1.68056e-05
0.00107633
4.14883e-06
1.40821e-05
0.00108053
3.85723e-06
9.97557e-06
0.00109132
5.88047e-06
4.79846e-06
0.00109841
2.35583e-06
2.17924e-06
0.00105948
6.36536e-06
0.000866436
1.28917e-06
1.87639e-05
0.000767158
9.76829e-07
2.37058e-05
0.00102424
6.33898e-06
2.45263e-05
0.00107314
3.11765e-06
2.36247e-05
0.00107662
6.02743e-06
2.19111e-05
0.00107593
4.14825e-06
1.89386e-05
0.00108141
3.74698e-06
1.42455e-05
0.00109366
5.8617e-06
8.33333e-06
0.00110158
2.22217e-06
4.11075e-06
0.00106256
6.14127e-06
0.000872738
1.43932e-06
2.26954e-05
0.000745228
1.23994e-06
2.90825e-05
0.00101608
6.45857e-06
3.08015e-05
0.00106856
3.37168e-06
3.023e-05
0.00107438
6.15296e-06
2.85292e-05
0.00107561
4.28871e-06
2.5214e-05
0.00108274
3.74703e-06
1.97568e-05
0.00109684
5.9052e-06
1.28119e-05
0.00110604
2.21518e-06
6.58514e-06
0.00106779
6.00384e-06
0.000881577
1.71323e-06
2.76962e-05
0.000718246
1.77973e-06
3.62546e-05
0.00100568
6.87601e-06
3.89878e-05
0.00106315
3.88218e-06
3.88025e-05
0.00107175
6.44324e-06
3.70938e-05
0.00107541
4.61337e-06
3.33287e-05
0.00108466
3.90493e-06
2.68927e-05
0.00110109
6.0558e-06
1.85291e-05
0.00111221
2.36585e-06
9.77422e-06
0.0010757
5.99148e-06
0.000893703
2.15886e-06
3.39556e-05
0.000684982
2.76325e-06
4.56554e-05
0.000992085
7.69513e-06
4.96023e-05
0.00105669
4.75179e-06
4.98892e-05
0.00106867
7.00826e-06
4.81689e-05
0.00107532
5.21775e-06
4.38408e-05
0.00108733
4.28564e-06
3.61693e-05
0.00110674
6.36587e-06
2.5904e-05
0.00112064
2.71155e-06
1.39157e-05
0.00108705
6.14949e-06
0.000910118
2.84676e-06
4.15961e-05
0.000644047
4.41208e-06
5.77632e-05
0.000974034
9.08846e-06
6.32676e-05
0.0010489
6.11775e-06
6.41557e-05
0.00106503
7.95237e-06
6.24732e-05
0.00107531
6.21542e-06
5.7487e-05
0.00109088
4.9925e-06
4.82825e-05
0.00111412
6.92596e-06
3.55078e-05
0.00113201
3.33961e-06
1.93304e-05
0.00110287
6.56834e-06
0.000932171
3.87563e-06
5.0602e-05
0.000594022
7.02745e-06
7.31101e-05
0.000949674
1.13594e-05
8.07484e-05
0.00103921
8.17644e-06
8.24329e-05
0.0010607
9.45197e-06
8.09138e-05
0.00107525
7.7384e-06
7.52517e-05
0.00109538
6.18988e-06
6.42066e-05
0.00112361
7.88513e-06
4.8168e-05
0.00114714
4.37268e-06
2.65155e-05
0.00112455
7.38044e-06
0.000961739
5.39237e-06
6.07197e-05
0.000533558
1.09606e-05
9.20271e-05
0.000916459
1.48565e-05
0.000102904
0.0010265
1.12521e-05
0.000105733
0.00105534
1.17584e-05
0.000104641
0.00107491
9.98527e-06
9.84595e-05
0.00110076
8.07237e-06
8.5335e-05
0.00113554
9.41343e-06
6.51333e-05
0.00116703
5.99156e-06
3.62412e-05
0.00115399
8.76159e-06
0.0010015
7.61202e-06
7.12496e-05
0.00046165
1.63641e-05
0.000114317
0.000871073
1.98936e-05
0.000130472
0.0010086
1.57362e-05
0.000135256
0.00104822
1.52144e-05
0.000135182
0.00107371
1.33142e-05
0.000128942
0.00110662
1.09311e-05
0.000113705
0.00115013
1.17778e-05
8.83401e-05
0.00119286
8.43183e-06
4.97498e-05
0.00119389
1.09579e-05
0.00105544
1.0838e-05
8.07786e-05
0.000378272
2.27408e-05
0.000138783
0.000809459
2.65322e-05
0.000163777
0.000981614
2.20897e-05
0.000172395
0.00103746
2.04025e-05
0.000174487
0.0010705
1.81547e-05
0.000169235
0.00111203
1.51609e-05
0.000152413
0.00116706
1.5322e-05
0.000120969
0.00122578
1.203e-05
6.93078e-05
0.00124797
1.4357e-05
0.00112996
1.54824e-05
8.66653e-05
0.000285206
2.85594e-05
0.000162481
0.000727095
3.42095e-05
0.000202153
0.000939072
3.07463e-05
0.000218583
0.00101916
2.80824e-05
0.000225114
0.00106319
2.50347e-05
0.000222935
0.00111505
2.12409e-05
0.000206116
0.00118507
2.04788e-05
0.000168308
0.00126645
1.71905e-05
9.87301e-05
0.00132154
1.94809e-05
0.00123543
2.21224e-05
8.52464e-05
0.000188963
3.0825e-05
0.000180134
0.000620861
4.06647e-05
0.000242725
0.000871612
4.15465e-05
0.0002745
0.00098585
3.92386e-05
0.000290148
0.00104763
3.48618e-05
0.000294923
0.00111226
2.96303e-05
0.000281893
0.00120101
2.75344e-05
0.000239647
0.0013137
2.423e-05
0.00014781
0.00141993
2.67893e-05
0.00139272
3.15128e-05
7.01358e-05
0.000115139
3.00629e-05
0.000185661
0.000495258
4.53799e-05
0.000280718
0.000771222
5.38983e-05
0.000339415
0.000926602
5.39005e-05
0.000372956
0.00101638
4.7877e-05
0.000391719
0.00109834
4.00644e-05
0.000390516
0.00120872
3.5891e-05
0.000350739
0.00136246
3.25231e-05
0.000232908
0.0015488
3.63597e-05
0.00163997
4.4245e-05
4.80601e-05
7.61115e-05
2.21483e-05
0.000173622
0.000368698
4.92014e-05
0.000303214
0.000643457
6.66615e-05
0.000404023
0.000833008
7.04696e-05
0.000473461
0.000957685
6.28097e-05
0.000520324
0.00106494
5.10428e-05
0.000547554
0.00119686
4.35248e-05
0.000522645
0.00140535
3.96858e-05
0.000420931
0.00167062
4.71229e-05
0.00208527
6.05271e-05
6.4836e-05
-1.19417e-05
3.18239e-05
0.000177141
3.36802e-05
0.000249802
0.000316331
5.99996e-05
0.000506124
0.000452566
6.82915e-05
0.000717037
0.000573245
6.14685e-05
0.000871446
0.000675679
4.76905e-05
0.00100382
0.00077346
3.72247e-05
0.00114091
0.000805638
3.303e-05
0.00141523
0.000800571
4.65167e-05
0.00171407
7.53205e-05
0.00292999
5.68144e-05
0.000957856
8.28206e-06
2.11745e-05
0.0010497
6.20215e-06
6.16285e-06
0.00103003
6.10442e-06
2.03795e-06
0.00101932
6.13133e-06
6.15861e-08
0.00101729
6.14631e-06
-1.91904e-06
0.00101729
6.14596e-06
-6.04108e-06
0.00101932
6.12944e-06
-2.10052e-05
0.00102998
6.10367e-06
-5.66415e-05
0.00104974
6.21649e-06
0.000958027
8.27773e-06
4.20854e-05
0.000926267
1.32543e-05
2.2877e-05
0.00107851
1.26025e-05
1.25564e-05
0.0010507
1.23603e-05
5.78714e-06
0.0010366
1.25175e-05
2.46685e-07
0.00103348
1.25885e-05
-5.30315e-06
0.00103349
1.25879e-05
-1.20982e-05
0.00103662
1.25195e-05
-2.24257e-05
0.00105065
1.23684e-05
-4.15737e-05
0.0010785
1.26258e-05
0.000926915
1.32436e-05
2.53627e-05
0.000906151
1.1475e-05
1.66611e-05
0.00109292
1.11618e-05
1.09308e-05
0.00106221
1.05886e-05
5.64809e-06
0.00104761
1.06756e-05
4.23502e-07
0.00104455
1.0744e-05
-4.82984e-06
0.00104459
1.07425e-05
-1.01945e-05
0.00104771
1.06774e-05
-1.60217e-05
0.00106226
1.05947e-05
-2.48762e-05
0.00109309
1.1168e-05
0.000907265
1.14727e-05
1.48287e-05
0.000893855
9.10598e-06
1.33402e-05
0.00109934
9.10973e-06
8.98895e-06
0.00107099
8.4817e-06
4.57394e-06
0.00105633
8.45873e-06
6.0515e-07
0.00105296
8.5374e-06
-3.41002e-06
0.00105305
8.53542e-06
-7.94836e-06
0.00105654
8.45735e-06
-1.24275e-05
0.00107116
8.48203e-06
-1.41668e-05
0.00109978
9.11043e-06
0.000895625
9.12087e-06
8.20872e-06
0.000886581
7.52365e-06
1.17409e-05
0.00110067
8.0185e-06
8.20685e-06
0.00107815
7.49208e-06
4.14762e-06
0.00106393
7.48126e-06
8.30868e-07
0.00105999
7.62532e-06
-2.55484e-06
0.00106013
7.62458e-06
-6.78542e-06
0.00106432
7.48034e-06
-1.05094e-05
0.00107851
7.49211e-06
-7.29977e-06
0.00110146
8.02399e-06
0.000889254
7.55938e-06
4.44277e-06
0.000882054
6.25618e-06
1.03465e-05
0.00109956
7.10687e-06
7.50131e-06
0.00108396
6.52646e-06
4.02545e-06
0.00107038
6.60181e-06
1.11201e-06
0.001066
6.81356e-06
-1.88758e-06
0.0010662
6.81279e-06
-5.59142e-06
0.00107102
6.6062e-06
-8.69009e-06
0.00108458
6.52609e-06
-3.24736e-06
0.00110078
7.10087e-06
0.000885934
6.31997e-06
2.6214e-06
0.000878803
5.17365e-06
9.11229e-06
0.0010976
6.18369e-06
6.70074e-06
0.00108899
5.41213e-06
3.97855e-06
0.00107591
5.60199e-06
1.46534e-06
0.00107121
5.81588e-06
-1.12535e-06
0.00107153
5.82035e-06
-4.17689e-06
0.00107687
5.60736e-06
-7.00385e-06
0.00109003
5.40411e-06
-1.04094e-06
0.00109952
6.17532e-06
0.000884201
5.27647e-06
1.69947e-06
0.000875934
4.33314e-06
8.39392e-06
0.00109565
5.54238e-06
6.17884e-06
0.00109363
4.47496e-06
4.09389e-06
0.00108082
4.79377e-06
1.93945e-06
0.00107593
4.94844e-06
-3.23053e-07
0.00107638
4.95702e-06
-2.83144e-06
0.00108213
4.77716e-06
-5.51075e-06
0.00109516
4.42607e-06
2.34323e-07
0.00109848
5.49179e-06
0.000883254
4.53298e-06
1.3324e-06
0.00087301
3.72147e-06
8.08367e-06
0.00109372
5.27639e-06
6.06496e-06
0.00109799
3.8039e-06
4.46877e-06
0.00108527
4.26192e-06
2.55644e-06
0.00108032
4.34505e-06
4.51749e-07
0.0010809
4.33774e-06
-1.59539e-06
0.00108705
4.24053e-06
-4.22554e-06
0.00110011
3.71106e-06
1.12886e-06
0.00109777
5.10633e-06
0.000882776
4.02775e-06
1.55664e-06
0.000869703
3.32968e-06
7.87867e-06
0.00109168
5.05417e-06
6.19755e-06
0.00110189
3.25071e-06
5.08957e-06
0.00108926
3.89001e-06
3.33557e-06
0.00108439
3.8923e-06
1.32164e-06
0.00108517
3.86185e-06
-3.19366e-07
0.00109172
3.91585e-06
-2.94237e-06
0.00110489
3.1194e-06
1.85289e-06
0.00109735
4.83558e-06
0.000882751
3.7516e-06
2.14696e-06
0.000865792
3.15794e-06
7.90313e-06
0.00108955
4.76151e-06
6.58644e-06
0.00110526
2.72353e-06
5.96345e-06
0.00109282
3.59189e-06
4.35713e-06
0.00108816
3.51015e-06
2.43644e-06
0.00108921
3.46205e-06
1.06811e-06
0.0010961
3.64281e-06
-1.54064e-06
0.00110944
2.57229e-06
2.41767e-06
0.0010973
4.53146e-06
0.000883176
3.59967e-06
2.97326e-06
0.000861073
3.03807e-06
8.32878e-06
0.00108734
4.50152e-06
7.3479e-06
0.00110811
2.27586e-06
7.16854e-06
0.00109598
3.36101e-06
5.68639e-06
0.00109162
3.1695e-06
3.8199e-06
0.00109303
3.10914e-06
2.61009e-06
0.00110027
3.40015e-06
-9.57701e-08
0.0011139
2.10853e-06
2.97278e-06
0.00109774
4.29025e-06
0.000884155
3.4524e-06
4.02047e-06
0.000855291
2.89829e-06
9.19805e-06
0.00108501
4.36269e-06
8.5792e-06
0.00111045
1.94224e-06
8.77668e-06
0.00109877
3.20336e-06
7.40586e-06
0.00109483
2.89875e-06
5.54412e-06
0.00109671
2.8262e-06
4.38036e-06
0.00110437
3.23598e-06
1.49203e-06
0.00111839
1.74138e-06
3.64411e-06
0.00109879
4.12736e-06
0.000885845
3.29752e-06
5.39033e-06
0.00084811
2.77837e-06
1.05726e-05
0.00108243
4.29108e-06
1.03858e-05
0.00111229
1.73166e-06
1.09058e-05
0.00110122
3.10563e-06
9.64797e-06
0.00109784
2.70473e-06
7.74309e-06
0.00110033
2.60852e-06
6.49344e-06
0.00110853
3.1343e-06
3.32843e-06
0.00112305
1.44768e-06
4.48719e-06
0.00110056
4.02231e-06
0.000888424
3.16049e-06
7.20421e-06
0.000839103
2.7004e-06
1.25859e-05
0.00107941
4.26216e-06
1.28761e-05
0.00111356
1.62057e-06
1.3711e-05
0.00110334
3.06044e-06
1.25605e-05
0.00110068
2.57838e-06
1.05568e-05
0.00110395
2.44451e-06
9.10043e-06
0.00111286
3.07813e-06
5.50588e-06
0.00112803
1.21847e-06
5.55265e-06
0.00110321
3.95273e-06
0.000892133
3.07925e-06
9.58275e-06
0.00082771
2.69444e-06
1.53842e-05
0.00107576
4.27684e-06
1.62282e-05
0.00111419
1.59954e-06
1.73773e-05
0.00110513
3.06886e-06
1.63242e-05
0.00110338
2.51838e-06
1.41535e-05
0.00110766
2.33447e-06
1.23462e-05
0.00111749
3.06738e-06
8.14757e-06
0.00113353
1.06799e-06
6.89937e-06
0.00110692
3.92198e-06
0.000897302
3.02901e-06
1.26659e-05
0.000813255
2.77984e-06
1.91726e-05
0.00107124
4.3686e-06
2.0692e-05
0.00111409
1.70771e-06
2.21466e-05
0.00110657
3.14563e-06
2.11849e-05
0.00110596
2.53961e-06
1.87736e-05
0.00111154
2.2895e-06
1.64444e-05
0.00112259
3.10561e-06
1.14519e-05
0.00113977
9.9326e-07
8.59906e-06
0.00111201
3.91638e-06
0.00090432
3.02942e-06
1.65817e-05
0.000794912
3.01442e-06
2.42256e-05
0.00106548
4.58108e-06
2.65623e-05
0.00111317
1.97124e-06
2.8334e-05
0.00110764
3.31586e-06
2.74596e-05
0.00110847
2.6678e-06
2.47203e-05
0.00111571
2.33032e-06
2.16725e-05
0.00112835
3.2046e-06
1.5633e-05
0.00114703
1.00784e-06
1.07819e-05
0.00111892
3.95019e-06
0.000913708
3.11573e-06
2.15046e-05
0.000771741
3.46028e-06
3.09283e-05
0.00105795
4.99323e-06
3.42186e-05
0.00111133
2.44688e-06
3.63392e-05
0.00110835
3.62501e-06
3.55477e-05
0.00111095
2.93854e-06
3.23837e-05
0.0011203
2.49041e-06
2.83864e-05
0.00113503
3.39285e-06
2.09645e-05
0.00115569
1.13865e-06
1.36141e-05
0.00112822
4.05583e-06
0.000926165
3.32441e-06
2.76127e-05
0.000742663
4.24325e-06
3.96517e-05
0.00104794
5.68733e-06
4.4105e-05
0.00110844
3.2028e-06
4.66436e-05
0.00110869
4.14511e-06
4.59594e-05
0.00111345
3.41111e-06
4.22737e-05
0.00112547
2.82077e-06
3.70601e-05
0.00114291
3.71257e-06
2.783e-05
0.00116623
1.42104e-06
1.73261e-05
0.00114062
4.27069e-06
0.000942645
3.70202e-06
3.49931e-05
0.000706524
5.57265e-06
5.07764e-05
0.00103449
6.76485e-06
5.67408e-05
0.0011043
4.30661e-06
5.98214e-05
0.00110862
4.96228e-06
5.93243e-05
0.00111601
4.16615e-06
5.50538e-05
0.00113135
3.39267e-06
4.83308e-05
0.00115235
4.22615e-06
3.6758e-05
0.00117924
1.91101e-06
2.22247e-05
0.00115708
4.65278e-06
0.000964437
4.31543e-06
4.35995e-05
0.000662381
7.58662e-06
6.47762e-05
0.00101626
8.42145e-06
7.27566e-05
0.00109861
5.89808e-06
7.65753e-05
0.00110806
6.20042e-06
7.64196e-05
0.00111861
5.3084e-06
7.15947e-05
0.00113807
4.30949e-06
6.30817e-05
0.00116373
5.02502e-06
4.85064e-05
0.00119551
2.69017e-06
2.87772e-05
0.00117892
5.28508e-06
0.000993357
5.25693e-06
5.31675e-05
0.000609714
1.04761e-05
8.19335e-05
0.000991463
1.09035e-05
9.28265e-05
0.00109084
8.14271e-06
9.77267e-05
0.00110692
8.01375e-06
9.82251e-05
0.00112114
6.97211e-06
9.30576e-05
0.00114563
5.69713e-06
8.25594e-05
0.00117744
6.2184e-06
6.42038e-05
0.00121601
3.86079e-06
3.76811e-05
0.00120794
6.27218e-06
0.001032
6.65125e-06
6.3186e-05
0.000548698
1.42083e-05
0.000102123
0.000958034
1.43975e-05
0.000117493
0.00107993
1.1288e-05
0.000124171
0.00110486
1.06074e-05
0.000125968
0.00112333
9.34492e-06
0.000121015
0.00115381
7.71565e-06
0.000108588
0.00119372
7.93902e-06
8.56e-05
0.00124189
5.54902e-06
5.00726e-05
0.0012467
7.73581e-06
0.00108426
8.65198e-06
7.27463e-05
0.000480273
1.84298e-05
0.000124452
0.000913886
1.89834e-05
0.000146924
0.00106399
1.55652e-05
0.000156852
0.00110112
1.42279e-05
0.000161116
0.00112459
1.26329e-05
0.000157569
0.001162
1.05304e-05
0.000143863
0.00121244
1.03146e-05
0.000115568
0.00127436
7.86753e-06
6.80424e-05
0.00129878
9.80436e-06
0.00115638
1.14055e-05
8.04545e-05
0.000405933
2.24458e-05
0.000147183
0.000857004
2.43676e-05
0.000180696
0.00104016
2.10688e-05