/*--------------------------------*- C++ -*----------------------------------*\
| =========                 |                                                 |
| \\      /  F ield         | OpenFOAM: The Open Source CFD Toolbox           |
|  \\    /   O peration     | Version:  4.1                                   |
|   \\  /    A nd           | Web:      www.OpenFOAM.org                      |
|    \\/     M anipulation  |                                                 |
\*---------------------------------------------------------------------------*/
FoamFile
{
    version     2.0;
    format      ascii;
    class       volVectorField;
    location    "900";
    object      U;
}
// * * * * * * * * * * * * * * * * * * * * * * * * * * * * * * * * * * * * * //

dimensions      [0 1 -1 0 0 0 0];

internalField   nonuniform List<vector> 
12000
(
(0.0919585 -0.00966125 0.00965653)
(0.0965524 -0.00179548 0.0105875)
(0.0959623 -0.00134994 0.0110106)
(0.0955735 -0.000556684 0.0110313)
(0.0954769 -0.000150154 0.0110606)
(0.0954771 0.00013242 0.0110606)
(0.0955739 0.000539997 0.011031)
(0.0959624 0.00133456 0.011011)
(0.0965512 0.00178333 0.010593)
(0.0919631 0.00965501 0.00965749)
(0.0862372 -0.00383053 0.0038196)
(0.0951552 -0.00255061 0.00537563)
(0.0937595 -0.00198145 0.00583311)
(0.0926855 -0.00088975 0.00580747)
(0.0923502 -0.000280929 0.00584211)
(0.0923514 0.000232924 0.00584161)
(0.0926882 0.000844322 0.00580696)
(0.0937613 0.00194041 0.00583161)
(0.0951548 0.00252167 0.00537864)
(0.0862558 0.00380164 0.00381704)
(0.082239 0.000779997 -0.000798106)
(0.0930906 -0.00256506 0.000294934)
(0.0918409 -0.00166149 0.000583487)
(0.0906062 -0.00080076 0.000574229)
(0.0901263 -0.000303414 0.000612448)
(0.0901298 0.000221978 0.000611564)
(0.0906148 0.00072441 0.00057464)
(0.0918509 0.0015949 0.00058419)
(0.0930994 0.00251871 0.00030182)
(0.0822949 -0.000817381 -0.000797154)
(0.0794826 0.00269459 -0.00272141)
(0.0906351 -0.00249994 -0.00233703)
(0.0900121 -0.00117553 -0.00226073)
(0.0889907 -0.000669813 -0.00219017)
(0.0884823 -0.000303576 -0.00213985)
(0.0884891 0.000182009 -0.0021405)
(0.0890104 0.000556825 -0.00219054)
(0.0900377 0.00107663 -0.00225758)
(0.0906582 0.00242703 -0.00232659)
(0.0795864 -0.00274302 -0.00271472)
(0.0780524 0.00318451 -0.00322294)
(0.088903 -0.0024045 -0.00342725)
(0.0889345 -0.000768947 -0.00355057)
(0.0881406 -0.000621623 -0.00337796)
(0.0876242 -0.000314043 -0.00331551)
(0.0876363 0.000141284 -0.00331636)
(0.0881774 0.000462956 -0.00338052)
(0.0889862 0.000629379 -0.00355432)
(0.0889456 0.00229867 -0.00341833)
(0.0782251 -0.00325034 -0.00321176)
(0.0772665 0.00308913 -0.00314353)
(0.087859 -0.00227959 -0.00373842)
(0.0884512 -0.000455213 -0.0040626)
(0.087777 -0.000622942 -0.00380257)
(0.0872426 -0.000324504 -0.00373542)
(0.0872597 8.63212e-05 -0.00373839)
(0.0878438 0.000406509 -0.00380321)
(0.0885438 0.00026493 -0.00407486)
(0.0879393 0.00213413 -0.00373076)
(0.0775396 -0.00318486 -0.00313278)
(0.0765895 0.00277854 -0.00285404)
(0.0871169 -0.00214865 -0.00366569)
(0.0882037 -0.00023283 -0.00417904)
(0.0875663 -0.000644781 -0.00385149)
(0.0870343 -0.000329234 -0.00378877)
(0.0870615 7.13937e-06 -0.00379283)
(0.0876738 0.000355348 -0.00384712)
(0.0883544 -3.07104e-05 -0.00418568)
(0.0872153 0.00195068 -0.00366783)
(0.0769949 -0.0029126 -0.00284346)
(0.0758396 0.00240387 -0.00250585)
(0.0864246 -0.00201427 -0.00347529)
(0.0880001 -7.92388e-05 -0.00410649)
(0.0873699 -0.000693348 -0.00371577)
(0.0868344 -0.000339928 -0.00368248)
(0.0868909 -8.92561e-05 -0.00368115)
(0.0875193 0.000306769 -0.00371132)
(0.0882161 -0.000270184 -0.004103)
(0.0866274 0.00175988 -0.00344106)
(0.0764341 -0.00258877 -0.00249828)
(0.0750308 0.00203216 -0.00216821)
(0.0859338 -0.00190576 -0.00318337)
(0.0877812 8.56742e-06 -0.00394949)
(0.0871573 -0.00076965 -0.00351174)
(0.0866809 -0.000365993 -0.003494)
(0.0867559 -0.000207677 -0.00349315)
(0.0873507 0.0002514 -0.00351583)
(0.0880994 -0.000459417 -0.00393393)
(0.0861063 0.00156398 -0.00316377)
(0.0758928 -0.00228356 -0.00216698)
(0.0742032 0.00169902 -0.00188143)
(0.0854879 -0.0018281 -0.00284277)
(0.0876025 7.39879e-06 -0.00373386)
(0.0869429 -0.000868733 -0.0032886)
(0.0865386 -0.000415132 -0.00328455)
(0.0866257 -0.000352287 -0.00328806)
(0.0872218 0.000183258 -0.00328896)
(0.0880299 -0.000600371 -0.00371707)
(0.0857064 0.00137168 -0.002835)
(0.0754215 -0.00202712 -0.00187696)
(0.0733618 0.00139948 -0.00164286)
(0.0850446 -0.00178337 -0.0025077)
(0.0874172 -7.3975e-05 -0.00349629)
(0.0867228 -0.000992303 -0.00306368)
(0.0864219 -0.000492288 -0.00306482)
(0.0865346 -0.000516605 -0.00307083)
(0.0871258 9.14125e-05 -0.00303884)
(0.0879925 -0.00072509 -0.00348145)
(0.085341 0.00117062 -0.00251707)
(0.0750321 -0.00182067 -0.00162641)
(0.0724779 0.00111487 -0.00143625)
(0.0845636 -0.00176782 -0.00222696)
(0.087223 -0.000210835 -0.00325203)
(0.0864944 -0.00114815 -0.00284735)
(0.0863025 -0.000606471 -0.0028536)
(0.0864524 -0.000714446 -0.00286421)
(0.087023 -4.14056e-05 -0.00280641)
(0.0879824 -0.000859773 -0.00325322)
(0.085018 0.00095833 -0.00224498)
(0.0747231 -0.0016515 -0.00140316)
(0.0715126 0.000833455 -0.00125493)
(0.0840709 -0.00179436 -0.0019984)
(0.0869885 -0.000396057 -0.00303126)
(0.0862648 -0.00134978 -0.00265108)
(0.0861786 -0.000776014 -0.00266567)
(0.086388 -0.000959959 -0.00267939)
(0.0869418 -0.000223545 -0.00260164)
(0.0880031 -0.00101786 -0.0030455)
(0.0847549 0.000732778 -0.0020234)
(0.074489 -0.00151097 -0.00120049)
(0.0704234 0.000548219 -0.00109953)
(0.0835632 -0.00188193 -0.00180495)
(0.0867179 -0.000644065 -0.00283771)
(0.0860272 -0.00160931 -0.00248197)
(0.0860576 -0.00101653 -0.00250079)
(0.0863462 -0.00126208 -0.00251584)
(0.0868874 -0.000465224 -0.00242179)
(0.0880647 -0.00121256 -0.00285393)
(0.0845745 0.000486037 -0.00183718)
(0.0743413 -0.00140249 -0.00102036)
(0.0691643 0.000249013 -0.000966808)
(0.0830256 -0.00204338 -0.00163589)
(0.0864147 -0.000973745 -0.00265651)
(0.0857799 -0.0019472 -0.00233366)
(0.0859396 -0.00134737 -0.00235214)
(0.086331 -0.00163862 -0.00236836)
(0.0868742 -0.000786071 -0.00226198)
(0.0881813 -0.00145523 -0.0026765)
(0.0845035 0.000210024 -0.0016711)
(0.0743052 -0.00133266 -0.000866377)
(0.0676743 -7.75365e-05 -0.000850782)
(0.0824323 -0.00229502 -0.0014853)
(0.0860446 -0.00140656 -0.0024852)
(0.0855187 -0.00238893 -0.00219768)
(0.0858204 -0.00179532 -0.00221327)
(0.0863445 -0.00211452 -0.00223214)
(0.0869168 -0.0012095 -0.00211767)
(0.0883675 -0.00177396 -0.00251394)
(0.0845745 -0.000111533 -0.00152785)
(0.0744082 -0.00129849 -0.000730967)
(0.0658724 -0.00044634 -0.000745036)
(0.0817505 -0.00266084 -0.00134589)
(0.085598 -0.0019722 -0.00231661)
(0.0852295 -0.00296548 -0.00206958)
(0.0856904 -0.00239401 -0.00207982)
(0.0863866 -0.00272173 -0.00210306)
(0.0870285 -0.00176312 -0.00198412)
(0.088643 -0.00219507 -0.00236195)
(0.08481 -0.000497235 -0.00140402)
(0.074679 -0.00130191 -0.00060694)
(0.0636511 -0.00087295 -0.000640846)
(0.080918 -0.00316915 -0.00121166)
(0.0850463 -0.0027097 -0.00214503)
(0.084893 -0.00371767 -0.00194464)
(0.0855408 -0.00318515 -0.00194678)
(0.0864573 -0.00350081 -0.00197656)
(0.0872193 -0.00248494 -0.0018574)
(0.0890335 -0.00274772 -0.00221661)
(0.0852431 -0.0009671 -0.00129219)
(0.075161 -0.00134886 -0.000487453)
(0.0608714 -0.00137101 -0.000526716)
(0.0798602 -0.00385484 -0.00107044)
(0.0843519 -0.00367061 -0.0019635)
(0.0844826 -0.00469718 -0.00181814)
(0.0853548 -0.00422095 -0.00180962)
(0.0865509 -0.00450346 -0.00184714)
(0.0875024 -0.00342326 -0.0017317)
(0.0895653 -0.00347222 -0.00207191)
(0.0859233 -0.00155089 -0.00118464)
(0.0759126 -0.00145007 -0.000366154)
(0.0573614 -0.00194826 -0.000388777)
(0.0784399 -0.00475579 -0.000906582)
(0.0834671 -0.00492136 -0.00176083)
(0.0839681 -0.00596917 -0.00168273)
(0.0851104 -0.00556536 -0.00166346)
(0.0866615 -0.00579461 -0.00170776)
(0.0878915 -0.00464095 -0.00159962)
(0.0902647 -0.0044236 -0.00191721)
(0.0869092 -0.00229078 -0.00107188)
(0.0770086 -0.00162075 -0.000235)
(0.0529221 -0.00259978 -0.000210164)
(0.0764607 -0.00590525 -0.000698231)
(0.0823198 -0.00653742 -0.00152019)
(0.0833093 -0.00761404 -0.00152373)
(0.0847791 -0.0072989 -0.00149845)
(0.0867688 -0.00745974 -0.00154871)
(0.0883957 -0.0062236 -0.001452)
(0.0911633 -0.00567868 -0.00174354)
(0.0882702 -0.00324362 -0.000945647)
(0.0785437 -0.00188345 -8.45606e-05)
(0.0473364 -0.0032957 3.11201e-05)
(0.0736263 -0.00731466 -0.000423771)
(0.0807959 -0.00859078 -0.00122235)
(0.0824374 -0.00972609 -0.00132289)
(0.08431 -0.00952094 -0.00130069)
(0.0868373 -0.00961082 -0.00135752)
(0.0890154 -0.00828678 -0.00127749)
(0.0923055 -0.00734588 -0.00153891)
(0.0900973 -0.00448988 -0.000793397)
(0.0806483 -0.00226958 9.94938e-05)
(0.0403996 -0.00395965 0.000353239)
(0.0695597 -0.00894668 -5.73551e-05)
(0.0787006 -0.0111241 -0.000845763)
(0.0812554 -0.0124059 -0.00105542)
(0.0836199 -0.0123496 -0.00105059)
(0.086803 -0.0123909 -0.00111253)
(0.0897341 -0.0109893 -0.00105528)
(0.0937305 -0.00958402 -0.00128746)
(0.0925033 -0.00615099 -0.000598138)
(0.0835009 -0.00283231 0.000334417)
(0.0320006 -0.00443855 0.00074619)
(0.063779 -0.0106606 0.000414859)
(0.0757178 -0.0140973 -0.000357523)
(0.0795854 -0.0157479 -0.000685908)
(0.0825679 -0.015927 -0.000724689)
(0.0865393 -0.0159831 -0.000790915)
(0.09048 -0.0145524 -0.000759977)
(0.0954759 -0.0126305 -0.000963848)
(0.0956407 -0.00841686 -0.000332946)
(0.0873771 -0.00365178 0.000646923)
(0.0222506 -0.00446967 0.00113391)
(0.055778 -0.0121404 0.00096351)
(0.0712712 -0.0172952 0.000264456)
(0.0770714 -0.0197807 -0.000168304)
(0.0809378 -0.0204117 -0.000278327)
(0.085846 -0.0206252 -0.000356828)
(0.0911227 -0.0192829 -0.000355336)
(0.0975474 -0.0168532 -0.000536708)
(0.099717 -0.011611 3.2998e-05)
(0.0926718 -0.00488269 0.0010755)
(0.0116728 -0.00363025 0.00127967)
(0.0452346 -0.0127931 0.00143796)
(0.0645617 -0.0201855 0.00102286)
(0.0730989 -0.0243535 0.000572346)
(0.0783209 -0.0259772 0.000354336)
(0.084368 -0.0266476 0.000230838)
(0.0913553 -0.0256268 0.000200271)
(0.0998455 -0.0228303 4.019e-05)
(0.104989 -0.0162766 0.000548397)
(0.100184 -0.00675067 0.00166697)
(0.00130895 -0.00115888 0.0011581)
(0.0320012 -0.0117088 0.00154397)
(0.0542886 -0.0218416 0.00176788)
(0.0663919 -0.0289241 0.00159484)
(0.0739172 -0.0326177 0.00129736)
(0.0815858 -0.0343984 0.00105993)
(0.0907537 -0.0341792 0.000966188)
(0.102188 -0.0314834 0.000823648)
(0.111862 -0.0235054 0.00129082)
(0.110967 -0.00997365 0.00252638)
(-0.00306157 0.00228289 0.00198625)
(0.0183184 -0.00793115 0.00202818)
(0.0399709 -0.0209756 0.00267565)
(0.0554122 -0.0325144 0.00287802)
(0.0662644 -0.0400851 0.0026058)
(0.076329 -0.0443298 0.00222142)
(0.0881471 -0.0458448 0.00201635)
(0.103599 -0.0442316 0.00187647)
(0.120023 -0.035327 0.00234265)
(0.128941 -0.0151568 0.00373763)
(-0.00579174 0.000452658 0.00091654)
(0.000542341 -0.00468348 0.00241304)
(0.01928 -0.0168025 0.00427639)
(0.0376828 -0.0321863 0.00508992)
(0.053084 -0.0456819 0.00479523)
(0.0672036 -0.0554708 0.00403571)
(0.0827448 -0.0614495 0.00349277)
(0.103718 -0.0633532 0.0032591)
(0.129628 -0.0563511 0.00382384)
(0.156314 -0.0284108 0.00553996)
(-0.0117753 -0.00418633 -0.00179338)
(-0.0143626 -0.0137736 -0.00190262)
(-0.00421247 -0.0226791 0.00102903)
(0.0116669 -0.033437 0.00469888)
(0.0288934 -0.0479371 0.00665489)
(0.0472576 -0.0638687 0.00676326)
(0.0669114 -0.0794373 0.00597512)
(0.0960546 -0.0895025 0.00527137)
(0.129174 -0.101166 0.00548243)
(0.217619 -0.0469613 0.00810421)
(0.096549 -0.0105917 0.00178793)
(0.101279 -0.00129827 0.00129218)
(0.100888 -0.00120161 0.00141229)
(0.100622 -0.000450063 0.0013829)
(0.100581 -0.000110489 0.00139611)
(0.100581 9.71203e-05 0.00139603)
(0.100623 0.000437089 0.00138272)
(0.10089 0.00118862 0.0014125)
(0.101285 0.00128561 0.00130029)
(0.0965607 0.0105719 0.00178771)
(0.095144 -0.00538536 0.00253279)
(0.108563 -0.00240082 0.00238413)
(0.10615 -0.00200659 0.00250274)
(0.104962 -0.000786932 0.00244374)
(0.104733 -0.000247605 0.00247781)
(0.104734 0.000198384 0.00247779)
(0.104962 0.000739145 0.00244418)
(0.106147 0.00195995 0.00250354)
(0.108563 0.00237131 0.00239264)
(0.0951748 0.00531496 0.00252771)
(0.093065 -0.000310596 0.00253642)
(0.112201 -0.00286933 0.00284194)
(0.109328 -0.00173184 0.00286099)
(0.107708 -0.000669342 0.00278495)
(0.107362 -0.000285733 0.00282637)
(0.107365 0.000201956 0.00282608)
(0.107713 0.000589971 0.00278432)
(0.10933 0.00165977 0.00286116)
(0.112206 0.00282615 0.0028504)
(0.0931518 0.00024603 0.00253421)
(0.0905862 0.00231309 0.00245853)
(0.112528 -0.00321732 0.00317845)
(0.110147 -0.00122979 0.00311278)
(0.108591 -0.000533944 0.00306066)
(0.108236 -0.000306218 0.00310993)
(0.108243 0.000185673 0.00310949)
(0.108605 0.000421796 0.00305788)
(0.11016 0.00112971 0.00310967)
(0.112563 0.00314606 0.00318321)
(0.0907308 -0.00237485 0.00246059)
(0.0888207 0.00339183 0.00234675)
(0.111662 -0.00346573 0.00341279)
(0.11009 -0.000800248 0.00324777)
(0.108717 -0.000527476 0.00325345)
(0.10836 -0.00033771 0.00331271)
(0.108372 0.000171774 0.00331051)
(0.108746 0.000374871 0.00325197)
(0.110119 0.000662961 0.00324443)
(0.111725 0.00336641 0.00341718)
(0.0890468 -0.00345439 0.00235399)
(0.0877298 0.00368754 0.00219971)
(0.110641 -0.00356574 0.0034931)
(0.109992 -0.000458524 0.00324855)
(0.108756 -0.000589332 0.00331405)
(0.108359 -0.000358092 0.00337061)
(0.10838 0.000134966 0.0033685)
(0.108796 0.000386349 0.00331352)
(0.110037 0.000271184 0.00324797)
(0.110725 0.0034172 0.00348633)
(0.0880762 -0.00375817 0.00221399)
(0.0869237 0.003593 0.00203848)
(0.109652 -0.0035258 0.00342919)
(0.109876 -0.000198008 0.00317728)
(0.108768 -0.000670561 0.00330121)
(0.108316 -0.000357454 0.00331548)
(0.108346 6.14072e-05 0.00332165)
(0.108824 0.000406216 0.00329178)
(0.109942 -4.9943e-05 0.00316774)
(0.109806 0.00336416 0.00345821)
(0.0874006 -0.00369742 0.00205851)
(0.0861446 0.00337633 0.00186786)
(0.108786 -0.00352813 0.00340048)
(0.109702 -3.10414e-05 0.00306763)
(0.10871 -0.000774848 0.00324649)
(0.108253 -0.000347881 0.00323596)
(0.108278 -4.37979e-05 0.00323675)
(0.108802 0.00042549 0.00322911)
(0.109814 -0.000291863 0.00306216)
(0.108895 0.00325063 0.00337296)
(0.0868768 -0.00348285 0.00189959)
(0.0855393 0.00305095 0.00171012)
(0.107731 -0.00347046 0.00329479)
(0.10953 2.35944e-05 0.00295749)
(0.108621 -0.000899393 0.00316747)
(0.108135 -0.000343407 0.00312785)
(0.108173 -0.000174408 0.00311607)
(0.108769 0.000440821 0.00316818)
(0.109682 -0.00047103 0.00294382)
(0.108087 0.00311086 0.00327448)
(0.0864433 -0.00322878 0.00174113)
(0.0849413 0.00266593 0.00156128)
(0.106797 -0.00330884 0.00307876)
(0.109324 1.4441e-05 0.0028323)
(0.108535 -0.00103135 0.00307539)
(0.108027 -0.000354627 0.00299852)
(0.108094 -0.000322812 0.00298579)
(0.108719 0.000428777 0.00309413)
(0.109555 -0.000613783 0.00280188)
(0.107321 0.00288977 0.0031051)
(0.0861618 -0.00293533 0.00159776)
(0.0843007 0.00227397 0.00142524)
(0.106035 -0.00313424 0.0028336)
(0.10911 -3.21544e-05 0.00269562)
(0.108458 -0.0011701 0.00297314)
(0.107925 -0.000390532 0.00285209)
(0.108022 -0.000496864 0.00284174)
(0.108674 0.000378361 0.00297357)
(0.109461 -0.000749743 0.00265118)
(0.106744 0.00261879 0.00289821)
(0.0859523 -0.0026628 0.00146721)
(0.0835579 0.00192265 0.00129761)
(0.105452 -0.00301909 0.00262402)
(0.108883 -0.000125271 0.0025512)
(0.108383 -0.00133124 0.0028688)
(0.107848 -0.000462555 0.00269989)
(0.107982 -0.000701133 0.0026928)
(0.108682 0.000295772 0.00285012)
(0.109406 -0.00088709 0.00250817)
(0.10633 0.00235493 0.00271087)
(0.0858181 -0.00244367 0.00134951)
(0.0827189 0.00160458 0.00117696)
(0.104938 -0.00298489 0.00245996)
(0.108667 -0.000273195 0.00241578)
(0.108299 -0.00152808 0.00276364)
(0.107793 -0.000581218 0.00256414)
(0.107965 -0.000940129 0.00255662)
(0.108719 0.000171993 0.00274027)
(0.109397 -0.00103864 0.00237557)
(0.106049 0.00209552 0.00254679)
(0.085772 -0.00228062 0.00124403)
(0.0817593 0.00129564 0.0010647)
(0.104441 -0.00300628 0.00231321)
(0.10844 -0.000485642 0.0023053)
(0.108202 -0.0017734 0.0026611)
(0.107746 -0.000761363 0.00244643)
(0.107965 -0.0012254 0.00243219)
(0.108788 -8.27236e-06 0.00263657)
(0.10944 -0.00121928 0.002254)
(0.105868 0.00182959 0.0024001)
(0.0858396 -0.0021601 0.00115094)
(0.0806397 0.000979572 0.00096298)
(0.103936 -0.00308231 0.00217371)
(0.108174 -0.000773191 0.00219926)
(0.108085 -0.00208021 0.00256663)
(0.1077 -0.0010225 0.00234163)
(0.107982 -0.00157068 0.00231797)
(0.108892 -0.000262697 0.00253923)
(0.109544 -0.00144299 0.00214321)
(0.105791 0.00154815 0.00227463)
(0.0860426 -0.00206782 0.00107282)
(0.0793052 0.000644364 0.000874163)
(0.103394 -0.00323508 0.00204775)
(0.107874 -0.00115059 0.00210355)
(0.10794 -0.00246847 0.0024791)
(0.107654 -0.00138698 0.00224889)
(0.108021 -0.00199372 0.0022146)
(0.109036 -0.000606572 0.00244915)
(0.109716 -0.00172578 0.00204365)
(0.105848 0.00122861 0.00216091)
(0.0863929 -0.00200752 0.00100951)
(0.0776953 0.000275394 0.000802839)
(0.102779 -0.00348098 0.00193673)
(0.10752 -0.00164596 0.00202983)
(0.107765 -0.00296469 0.00239989)
(0.107612 -0.00188199 0.00217293)
(0.10809 -0.00252023 0.00212566)
(0.109235 -0.00106348 0.00236702)
(0.109977 -0.00208764 0.0019598)
(0.106063 0.000851317 0.00205716)
(0.0869165 -0.00198227 0.000963154)
(0.0757226 -0.000138923 0.000755246)
(0.102057 -0.00385182 0.00185255)
(0.107102 -0.00229194 0.00197768)
(0.107557 -0.00360293 0.00233348)
(0.107575 -0.0025423 0.00211693)
(0.108197 -0.00318389 0.00205404)
(0.109507 -0.00166461 0.00229664)
(0.110352 -0.00255462 0.00189436)
(0.10647 0.000397994 0.00196957)
(0.0876591 -0.00199558 0.000938751)
(0.0733077 -0.000614573 0.000744466)
(0.101148 -0.00437649 0.00180325)
(0.106606 -0.00313195 0.00195313)
(0.107316 -0.00442692 0.00228969)
(0.107549 -0.0034113 0.00208573)
(0.108358 -0.00402801 0.00200585)
(0.109873 -0.0024516 0.00224385)
(0.110874 -0.00316092 0.00185329)
(0.107114 -0.000155837 0.00190465)
(0.0886893 -0.00205271 0.000942746)
(0.0703311 -0.00116518 0.000786257)
(0.0999779 -0.00508226 0.00179787)
(0.106018 -0.00421862 0.00196568)
(0.107033 -0.00549038 0.0022811)
(0.107535 -0.00454499 0.00209065)
(0.108584 -0.00510858 0.0019875)
(0.110362 -0.00347985 0.00221432)
(0.111592 -0.00395378 0.00184174)
(0.108059 -0.00084506 0.00186864)
(0.0900943 -0.00216516 0.0009829)
(0.0666689 -0.00180078 0.000900907)
(0.0984337 -0.00599538 0.00185439)
(0.105314 -0.0056125 0.00202905)
(0.106698 -0.00685809 0.00231674)
(0.107532 -0.00601319 0.00214349)
(0.108893 -0.00649894 0.00201091)
(0.111006 -0.00482214 0.00221864)
(0.112569 -0.00499934 0.00186984)
(0.109397 -0.00171533 0.00187367)
(0.0919893 -0.00234978 0.00107087)
(0.0621644 -0.00250737 0.00111651)
(0.096378 -0.00714971 0.00200784)
(0.10446 -0.00738028 0.00216308)
(0.106304 -0.00861246 0.00241443)
(0.10753 -0.00790103 0.00225631)
(0.109294 -0.00829551 0.00209521)
(0.111843 -0.00657866 0.00227375)
(0.113877 -0.00638969 0.00194949)
(0.111243 -0.00283671 0.0019351)
(0.0945336 -0.00263394 0.00122371)
(0.0566947 -0.00325234 0.00146086)
(0.0935792 -0.00855194 0.00229105)
(0.10338 -0.00958792 0.00240344)
(0.105829 -0.0108522 0.00259787)
(0.107517 -0.0103133 0.00244808)
(0.109791 -0.0106241 0.00225984)
(0.112907 -0.00888743 0.00239746)
(0.11561 -0.0082627 0.00210205)
(0.113762 -0.00431458 0.00207434)
(0.0979488 -0.0030611 0.00146696)
(0.050118 -0.00396042 0.00193414)
(0.0897608 -0.0101562 0.00272499)
(0.101921 -0.0122671 0.00278308)
(0.105226 -0.0136824 0.00289946)
(0.107456 -0.0133851 0.00276059)
(0.110365 -0.0136558 0.00253629)
(0.114234 -0.0119441 0.00262206)
(0.117875 -0.0108268 0.00235294)
(0.117178 -0.00631474 0.00232218)
(0.102569 -0.00370344 0.00183692)
(0.0423534 -0.00449045 0.00247014)
(0.0845266 -0.0118254 0.0032947)
(0.0998016 -0.0153696 0.00334084)
(0.104395 -0.0172077 0.00338045)
(0.107268 -0.0172825 0.00323362)
(0.110959 -0.0176176 0.00296632)
(0.115826 -0.0160337 0.0029878)
(0.120803 -0.0144153 0.00274451)
(0.121822 -0.00911871 0.00273127)
(0.108879 -0.00469818 0.00238796)
(0.0334222 -0.00458075 0.0028881)
(0.0774447 -0.0132616 0.0039208)
(0.0965422 -0.0186954 0.00410663)
(0.103079 -0.0214921 0.00411622)
(0.106803 -0.0222102 0.00392648)
(0.111432 -0.0228241 0.00361216)
(0.117617 -0.021573 0.00355229)
(0.124485 -0.0195537 0.00333001)
(0.128115 -0.0132204 0.00336902)
(0.117813 -0.00623778 0.00319764)
(0.0236101 -0.00390792 0.00286061)
(0.067964 -0.0139632 0.00434167)
(0.0913144 -0.0217808 0.00506004)
(0.100781 -0.0264419 0.00522684)
(0.105834 -0.0283897 0.00495796)
(0.111575 -0.0296801 0.00453596)
(0.119446 -0.0291529 0.00436811)
(0.128996 -0.0271181 0.00417399)
(0.136698 -0.019594 0.00431664)
(0.130592 -0.00899597 0.00439083)
(0.0144177 -0.00199063 0.00284932)
(0.0563302 -0.0132564 0.0047044)
(0.0832534 -0.023995 0.00620404)
(0.0965743 -0.031765 0.00676471)
(0.103757 -0.0360069 0.00643754)
(0.110869 -0.038695 0.00580156)
(0.12074 -0.0396032 0.00545806)
(0.133926 -0.0384971 0.00528547)
(0.147869 -0.0302145 0.00565606)
(0.15144 -0.0134418 0.00610745)
(0.00853033 -0.000394015 0.00304318)
(0.0431016 -0.0109374 0.00549085)
(0.0715958 -0.0241381 0.00770949)
(0.0893165 -0.0361758 0.00880026)
(0.0999294 -0.0445888 0.0084438)
(0.109055 -0.0503321 0.00747114)
(0.12114 -0.0539961 0.00682644)
(0.139105 -0.0557041 0.00662775)
(0.162114 -0.0490403 0.00748044)
(0.182952 -0.0254268 0.00858489)
(0.00551269 -0.00246671 0.000509088)
(0.0303639 -0.0109778 0.00467408)
(0.0571141 -0.0243599 0.00794983)
(0.0775492 -0.0388792 0.00978789)
(0.0918595 -0.0519493 0.0098344)
(0.103954 -0.0631237 0.00873212)
(0.117552 -0.0732431 0.007695)
(0.141658 -0.080748 0.00735924)
(0.170867 -0.089767 0.00877315)
(0.24939 -0.0417442 0.0117174)
(0.0959597 -0.0110148 0.00134213)
(0.100888 -0.00141806 0.00119554)
(0.100632 -0.00114269 0.00113698)
(0.100397 -0.000448867 0.00115236)
(0.100357 -0.000109532 0.00115796)
(0.100357 9.75524e-05 0.00115792)
(0.100398 0.000437131 0.00115208)
(0.100635 0.00112985 0.00113693)
(0.100895 0.00140409 0.00119805)
(0.0959769 0.0109887 0.00134166)
(0.0937495 -0.00584347 0.00196156)
(0.106151 -0.00251927 0.00198743)
(0.103651 -0.00192115 0.00190259)
(0.102481 -0.00078761 0.00195176)
(0.102246 -0.000242403 0.00196353)
(0.102247 0.000193826 0.00196346)
(0.10248 0.00074008 0.00195208)
(0.103643 0.00187348 0.00190296)
(0.106151 0.00248954 0.00198905)
(0.0937804 0.00576186 0.00195921)
(0.0918161 -0.000599578 0.001628)
(0.109328 -0.00288773 0.00169865)
(0.10602 -0.00162537 0.00159274)
(0.10439 -0.000650011 0.00163656)
(0.104042 -0.000273864 0.00164654)
(0.104045 0.000190285 0.00164644)
(0.104396 0.000570213 0.00163711)
(0.106018 0.00155265 0.00159334)
(0.109329 0.00284667 0.00169913)
(0.0919028 0.000537264 0.00162748)
(0.0899641 0.00223648 0.0011251)
(0.110145 -0.0031502 0.0011806)
(0.107036 -0.00111312 0.00106435)
(0.105451 -0.000501457 0.00109196)
(0.105101 -0.000293203 0.00110259)
(0.105107 0.000173138 0.00110252)
(0.105466 0.00038936 0.00109207)
(0.107047 0.00101254 0.00106433)
(0.110178 0.00307842 0.00118076)
(0.0901016 -0.00229556 0.00112681)
(0.0888553 0.00351886 0.000696891)
(0.110086 -0.00330205 0.000729694)
(0.107525 -0.000671855 0.000601868)
(0.106084 -0.000498992 0.000622644)
(0.10573 -0.00032905 0.000639384)
(0.105741 0.000163774 0.000639409)
(0.106113 0.00034779 0.000622354)
(0.10755 0.00053427 0.000601376)
(0.110146 0.00319566 0.000730051)
(0.0890717 -0.00357806 0.000699821)
(0.0883331 0.00401924 0.000354675)
(0.109979 -0.0033217 0.000361852)
(0.108059 -0.000293242 0.000196353)
(0.106695 -0.000569572 0.000217096)
(0.106293 -0.000351527 0.000237717)
(0.106309 0.000129083 0.000237167)
(0.106745 0.000369495 0.000217443)
(0.108107 0.000105858 0.000194711)
(0.110078 0.003176 0.000359812)
(0.0886527 -0.00408521 0.00036056)
(0.0880327 0.00410994 9.33682e-05)
(0.109853 -0.00326426 6.96497e-05)
(0.108637 2.2499e-05 -0.00015142)
(0.107312 -0.000657739 -0.000125784)
(0.106857 -0.000347264 -0.000109049)
(0.106882 5.12443e-05 -0.000109389)
(0.107391 0.000394745 -0.00012386)
(0.108718 -0.00027111 -0.00015262)
(0.110007 0.00308426 6.53832e-05)
(0.0884889 -0.00420769 9.83165e-05)
(0.0877479 0.00401333 -0.000108941)
(0.109683 -0.00318882 -0.000141219)
(0.109151 0.000247501 -0.000419757)
(0.107859 -0.00076121 -0.000385107)
(0.107372 -0.000327659 -0.000382973)
(0.107409 -6.50416e-05 -0.000380936)
(0.10797 0.000415782 -0.000384263)
(0.109277 -0.000581373 -0.000424684)
(0.109904 0.00295085 -0.000139582)
(0.0883828 -0.00413698 -9.59553e-05)
(0.0874599 0.00381916 -0.000259438)
(0.109476 -0.00310804 -0.000249105)
(0.109597 0.000384975 -0.000615413)
(0.108324 -0.000886122 -0.000564794)
(0.107828 -0.000309524 -0.000576422)
(0.107879 -0.000206511 -0.000575597)
(0.108476 0.000435041 -0.000565082)
(0.109777 -0.000836231 -0.000623728)
(0.10982 0.0028034 -0.000270973)
(0.0882928 -0.00398868 -0.000230918)
(0.0871494 0.00356115 -0.000341357)
(0.109267 -0.00302082 -0.000313579)
(0.110003 0.000463465 -0.000761821)
(0.108737 -0.00102589 -0.000685644)
(0.108244 -0.000302732 -0.000712419)
(0.108311 -0.000370539 -0.000715855)
(0.108947 0.000438528 -0.000678421)
(0.110254 -0.00105965 -0.000774747)
(0.109745 0.0026279 -0.000349268)
(0.0882698 -0.00379713 -0.000304936)
(0.0867905 0.00327198 -0.000364407)
(0.109059 -0.0029424 -0.000362672)
(0.110367 0.000490115 -0.000878582)
(0.109112 -0.00117884 -0.000766798)
(0.108634 -0.000318047 -0.000807655)
(0.108724 -0.00056339 -0.000814655)
(0.109397 0.000411521 -0.000751626)
(0.110719 -0.0012645 -0.000894961)
(0.109721 0.00243613 -0.000407236)
(0.0882853 -0.00360036 -0.000334308)
(0.0863639 0.00297508 -0.000364078)
(0.108846 -0.0028896 -0.000393919)
(0.110681 0.000455639 -0.000964973)
(0.109449 -0.00135211 -0.000819232)
(0.108996 -0.000367389 -0.000876584)
(0.109117 -0.00078477 -0.00088622)
(0.109823 0.000349285 -0.000802326)
(0.111168 -0.00145847 -0.000985813)
(0.10974 0.0022374 -0.000440789)
(0.0883547 -0.00341424 -0.000343977)
(0.085847 0.00267798 -0.000360385)
(0.10862 -0.00286867 -0.000403721)
(0.110941 0.000355468 -0.00102394)
(0.109747 -0.00155444 -0.000848998)
(0.109329 -0.000461731 -0.000924405)
(0.109491 -0.00103858 -0.00093595)
(0.110235 0.000243122 -0.000831298)
(0.111614 -0.00165042 -0.00104846)
(0.109812 0.00202079 -0.000456552)
(0.0884842 -0.00325005 -0.000346738)
(0.0852056 0.00237793 -0.000350608)
(0.108379 -0.0028932 -0.000399728)
(0.11115 0.000186514 -0.00105803)
(0.110008 -0.00179881 -0.000862192)
(0.109639 -0.000616149 -0.000953949)
(0.109855 -0.00133505 -0.000968159)
(0.110646 8.05995e-05 -0.00084439)
(0.11207 -0.00185662 -0.00109175)
(0.109951 0.00178155 -0.000460425)
(0.0886938 -0.00310798 -0.000343024)
(0.0844085 0.00206192 -0.000332297)
(0.108101 -0.00297501 -0.000384261)
(0.111305 -6.12325e-05 -0.00106994)
(0.110236 -0.00209921 -0.000862091)
(0.109931 -0.000848134 -0.000967962)
(0.110215 -0.00168662 -0.000986739)
(0.111067 -0.000150724 -0.000845874)
(0.112549 -0.00209623 -0.00112261)
(0.110172 0.00151706 -0.000458672)
(0.089001 -0.00298988 -0.000327254)
(0.0834029 0.00171776 -0.000303854)
(0.107773 -0.00312662 -0.000357747)
(0.111403 -0.000403525 -0.00106365)
(0.110431 -0.00247351 -0.000849959)
(0.110207 -0.00117808 -0.00096811)
(0.110579 -0.00210994 -0.000993599)
(0.111512 -0.000466361 -0.000837391)
(0.113068 -0.00238132 -0.00113919)
(0.110483 0.00121529 -0.000451284)
(0.0894391 -0.00290092 -0.000305919)
(0.0821287 0.0013331 -0.000262873)
(0.107371 -0.00336513 -0.000317659)
(0.111432 -0.000863455 -0.00103658)
(0.110593 -0.00294581 -0.000826083)
(0.11047 -0.00163212 -0.000954146)
(0.110957 -0.00262824 -0.00098886)
(0.111995 -0.000890232 -0.000819586)
(0.113649 -0.00273083 -0.00114118)
(0.110914 0.00085877 -0.000439083)
(0.0900407 -0.00284287 -0.000279655)
(0.080512 0.000897011 -0.000204776)
(0.106868 -0.00370949 -0.000259802)
(0.111383 -0.0014709 -0.000985505)
(0.110719 -0.00354649 -0.0007887)
(0.110724 -0.00224323 -0.000923789)
(0.111357 -0.0032718 -0.000971074)
(0.112534 -0.00145206 -0.000792239)
(0.114318 -0.00317119 -0.00112808)
(0.111505 0.000430408 -0.000421109)
(0.090849 -0.00282036 -0.000244182)
(0.0784597 0.000400048 -0.000121205)
(0.106221 -0.00419156 -0.000173788)
(0.111248 -0.00226409 -0.000904554)
(0.110809 -0.0043146 -0.00073394)
(0.110973 -0.00305225 -0.000873888)
(0.111793 -0.00407969 -0.000937343)
(0.113151 -0.00219022 -0.000753161)
(0.115107 -0.00373566 -0.00109841)
(0.112304 -9.2054e-05 -0.000394774)
(0.0919256 -0.00283859 -0.000194811)
(0.0758815 -0.000174618 2.36647e-06)
(0.105363 -0.00483378 -4.78672e-05)
(0.111015 -0.00328883 -0.000783153)
(0.110862 -0.00529586 -0.000653582)
(0.111221 -0.00410981 -0.000798118)
(0.112278 -0.00510249 -0.000881964)
(0.113872 -0.00315563 -0.000698051)
(0.116057 -0.00446822 -0.0010495)
(0.113374 -0.000740235 -0.000356432)
(0.0933519 -0.00290914 -0.000125621)
(0.0726563 -0.000833099 0.000188418)
(0.104219 -0.0056552 0.000132024)
(0.110669 -0.00459538 -0.000609479)
(0.110876 -0.00654527 -0.000536014)
(0.111474 -0.00547656 -0.000686454)
(0.112827 -0.00640528 -0.00079671)
(0.114732 -0.00441494 -0.000620173)
(0.117223 -0.00542869 -0.000975699)
(0.114798 -0.00155852 -0.000300387)
(0.0952393 -0.00304602 -2.89504e-05)
(0.0686704 -0.00156049 0.000460574)
(0.102682 -0.00668551 0.000389838)
(0.110188 -0.00624015 -0.000365668)
(0.110846 -0.0081307 -0.000364752)
(0.111732 -0.00722594 -0.000525009)
(0.113456 -0.00807135 -0.000668561)
(0.115765 -0.00605795 -0.000508194)
(0.118672 -0.00670092 -0.000866449)
(0.116686 -0.00261158 -0.000216446)
(0.0977398 -0.00327575 0.000106375)
(0.0638465 -0.00232259 0.000848105)
(0.100588 -0.00793305 0.000757331)
(0.109535 -0.00827231 -2.75645e-05)
(0.110765 -0.0101314 -0.000117138)
(0.111991 -0.00944541 -0.000295053)
(0.11417 -0.0102098 -0.000479392)
(0.117014 -0.00820712 -0.000346355)
(0.120493 -0.00840826 -0.000707706)
(0.119196 -0.00399581 -9.11322e-05)
(0.10107 -0.00363523 0.000296714)
(0.0581594 -0.00306427 0.00136146)
(0.0977396 -0.00936664 0.00126586)
(0.108637 -0.0107139 0.000442957)
(0.110612 -0.0126277 0.000239294)
(0.112233 -0.0122365 3.00865e-05)
(0.114963 -0.0129647 -0.000204866)