/*--------------------------------*- C++ -*----------------------------------*\
| =========                 |                                                 |
| \\      /  F ield         | OpenFOAM: The Open Source CFD Toolbox           |
|  \\    /   O peration     | Version:  4.1                                   |
|   \\  /    A nd           | Web:      www.OpenFOAM.org                      |
|    \\/     M anipulation  |                                                 |
\*---------------------------------------------------------------------------*/
FoamFile
{
    version     2.0;
    format      ascii;
    class       volScalarField;
    location    "60";
    object      T;
}
// * * * * * * * * * * * * * * * * * * * * * * * * * * * * * * * * * * * * * //

dimensions      [0 0 0 1 0 0 0];

internalField   nonuniform List<scalar> 
12000
(
0.999583
1.00358
0.999807
1.00054
1.00055
1.00055
1.00053
0.999806
1.00359
0.999558
0.994979
0.996274
0.99554
0.996991
0.997021
0.997014
0.996979
0.995539
0.996307
0.994933
0.999372
0.994202
0.997396
0.998257
0.998158
0.998157
0.99825
0.997414
0.994232
0.999302
1.00385
0.995572
1.00083
1.00049
1.00029
1.00027
1.00049
1.00085
0.99556
1.00374
1.00496
0.996286
1.00237
1.00118
1.00117
1.00107
1.00118
1.00239
0.996229
1.00482
1.00441
0.996219
1.0025
1.00085
1.00118
1.00107
1.00085
1.00249
0.996172
1.00423
1.00371
0.996266
1.00232
1.00037
1.00095
1.00093
1.00035
1.00228
0.996254
1.00349
1.00314
0.996556
1.00213
0.999989
1.00075
1.00079
0.999953
1.00209
0.996576
1.00289
1.00259
0.996883
1.00192
0.999661
1.00054
1.00062
0.999611
1.00184
0.996919
1.00231
1.00208
0.997163
1.00163
0.999362
1.00033
1.00042
0.999311
1.00155
0.997197
1.00175
1.00166
0.997371
1.00134
0.999142
1.00013
1.00023
0.999065
1.00125
0.997409
1.00127
1.00135
0.997547
1.0011
0.999008
0.99998
1.00009
0.998893
1.00101
0.997582
1.0009
1.00117
0.997748
1.0009
0.998937
0.999869
0.999984
0.998803
1.00081
0.997741
1.00063
1.00108
0.997937
1.00074
0.998916
0.999794
0.999914
0.998769
1.00064
0.997884
1.00042
1.00107
0.998116
1.00063
0.998933
0.999749
0.999872
0.998773
1.00052
0.99801
1.00024
1.00115
0.998295
1.00055
0.998978
0.999726
0.999853
0.998805
1.00041
0.998122
1.00009
1.0013
0.998477
1.00049
0.999043
0.99972
0.999852
0.998852
1.00033
0.998214
0.999955
1.00152
0.998674
1.00042
0.999116
0.999724
0.999863
0.998913
1.00026
0.99828
0.999833
1.00178
0.998908
1.00033
0.999187
0.999737
0.999887
0.998985
1.0002
0.998319
0.999714
1.00202
0.99921
1.00019
0.999244
0.999753
0.999929
0.999067
1.00017
0.998327
0.99958
1.00212
0.999552
0.999953
0.999248
0.999753
0.999984
0.999154
1.00016
0.998293
0.999405
1.00181
0.999828
0.999541
0.999128
0.999701
1.00003
0.999241
1.00014
0.998191
0.999136
1.00064
0.999786
0.998804
0.998731
0.999498
1
0.999306
1.00009
0.997978
0.998678
0.997816
0.998814
0.997462
0.997775
0.99891
0.999754
0.999269
0.999974
0.997576
0.997859
0.992031
0.99556
0.99478
0.995654
0.997433
0.998943
0.998962
0.999736
0.996886
0.996275
0.980712
0.987498
0.989236
0.991216
0.99407
0.996818
0.997919
0.999197
0.995849
0.993388
0.957961
0.970104
0.977728
0.982233
0.987076
0.992072
0.995367
0.99821
0.994967
0.987554
0.928465
0.946819
0.958957
0.966174
0.973746
0.98195
0.988857
0.995089
0.996099
0.980125
0.890312
0.912027
0.927995
0.938891
0.950834
0.963675
0.976745
0.988454
1.00646
0.971231
0.829424
0.84796
0.87163
0.891385
0.909138
0.925235
0.944595
0.958449
1.02785
1.022
1.00359
1.00675
1.00301
1.00391
1.00387
1.00387
1.00391
1.00301
1.00679
1.00354
0.996298
0.996863
0.996392
0.998265
0.998221
0.998219
0.99825
0.996387
0.996959
0.99624
0.994235
0.98974
0.992956
0.993843
0.993639
0.993629
0.993825
0.99297
0.989826
0.994131
0.995617
0.987826
0.993448
0.992816
0.99245
0.99245
0.992795
0.993474
0.987909
0.995468
0.996341
0.987434
0.994339
0.992675
0.992441
0.992501
0.992655
0.994363
0.987536
0.996152
0.996289
0.987519
0.994654
0.992459
0.992628
0.99271
0.992432
0.994667
0.987594
0.9961
0.996358
0.988187
0.994892
0.992426
0.993038
0.993084
0.992389
0.994891
0.988212
0.996184
0.996679
0.989334
0.995353
0.992736
0.993674
0.993693
0.992686
0.995322
0.989299
0.9965
0.997047
0.990588
0.995895
0.993257
0.994389
0.994401
0.993188
0.995847
0.990509
0.996832
0.997381
0.991705
0.996378
0.993819
0.995044
0.995066
0.993726
0.996307
0.991605
0.997083
0.997657
0.992692
0.996787
0.99435
0.995605
0.995642
0.994244
0.996687
0.99257
0.997261
0.997916
0.993582
0.997134
0.994857
0.996089
0.99614
0.994744
0.997008
0.993423
0.99741
0.998226
0.994335
0.997442
0.995345
0.996508
0.996577
0.995213
0.997293
0.994147
0.997552
0.998549
0.994983
0.997725
0.995811
0.996876
0.996963
0.995652
0.997549
0.994761
0.997675
0.998885
0.995556
0.997967
0.996245
0.997199
0.997305
0.996057
0.997772
0.995269
0.9978
0.999242
0.996066
0.998181
0.996645
0.997482
0.997606
0.996429
0.997967
0.995676
0.99793
0.999608
0.996539
0.998368
0.997007
0.99773
0.997872
0.996769
0.998145
0.996007
0.998024
0.999963
0.996988
0.998525
0.997327
0.997945
0.998107
0.997073
0.998305
0.996271
0.998063
1.00028
0.99741
0.99863
0.997595
0.998123
0.998309
0.997336
0.998442
0.996461
0.998037
1.00053
0.997785
0.998641
0.997788
0.998254
0.99847
0.997554
0.998538
0.996566
0.997928
1.00057
0.998095
0.998519
0.997868
0.998316
0.998575
0.997716
0.998574
0.996558
0.997703
1.00017
0.998266
0.998202
0.997772
0.998263
0.998594
0.997797
0.998526
0.996395
0.997297
0.999018
0.998092
0.997554
0.997383
0.998007
0.998465
0.997757
0.998356
0.99601
0.996596
0.996544
0.99715
0.996322
0.996459
0.99735
0.998054
0.997518
0.998004
0.995298
0.995403
0.991645
0.994517
0.993943
0.994523
0.995904
0.997096
0.996936
0.997398
0.994123
0.993293
0.982175
0.988279
0.989217
0.990625
0.992875
0.995006
0.995646
0.996407
0.992397
0.989713
0.964431
0.974923
0.979704
0.983031
0.986913
0.990779
0.993052
0.994939
0.990477
0.982953
0.936847
0.952522
0.962712
0.969172
0.975617
0.982153
0.987258
0.991845
0.990315
0.974251
0.895673
0.916802
0.933648
0.945408
0.956077
0.966425
0.976416
0.985355
0.997907
0.962413
0.839689
0.861186
0.883728
0.903444
0.920429
0.934804
0.950747
0.961476
1.01958
1.00262
0.999819
1.00301
0.998896
0.999618
0.999577
0.999576
0.999614
0.998897
1.00306
0.999753
0.99557
0.996402
0.996001
0.997902
0.997907
0.9979
0.997879
0.995984
0.996495
0.9955
0.997443
0.992971
0.996511
0.997542
0.997367
0.997353
0.997516
0.99653
0.993067
0.997308
1.00089
0.993464
0.999434
0.998787
0.998441
0.998433
0.998761
0.999463
0.993525
1.00074
1.00244
0.994355
1.00165
0.999837
0.999727
0.999735
0.999809
1.00167
0.99438
1.00229
1.00257
0.99467
1.00229
0.999948
1.00038
1.00037
0.999918
1.0023
0.994659
1.00242
1.0024
0.994906
1.00219
0.999594
1.00053
1.00051
0.999563
1.00219
0.994866
1.00223
1.00224
0.995356
1.00201
0.999272
1.00055
1.00052
0.999244
1.00201
0.995289
1.00204
1.00203
0.99589
1.00186
0.999089
1.00056
1.00054
0.999053
1.00184
0.995788
1.00183
1.00177
0.996364
1.00167
0.998967
1.00052
1.00052
0.998914
1.00164
0.996242
1.00152
1.00152
0.996756
1.00145
0.998865
1.00043
1.00045
0.998799
1.00139
0.996625
1.0012
1.00133
0.997088
1.00121
0.998796
1.00031
1.00036
0.998714
1.00114
0.996949
1.00092
1.00121
0.997363
1.001
0.998767
1.00019
1.00026
0.998666
1.0009
0.997228
1.00068
1.00115
0.99761
1.00081
0.998773
1.00008
1.00017
0.998652
1.0007
0.997464
1.00048
1.00116
0.997827
1.00064
0.998802
0.999977
1.00009
0.998659
1.00051
0.997653
1.00031
1.00122
0.998016
1.00048
0.998844
0.999886
1.00002
0.998683
1.00036
0.997802
1.00015
1.00134
0.998194
1.00034
0.998893
0.999806
0.999958
0.998717
1.00023
0.997918
0.999999
1.00149
0.998374
1.0002
0.99894
0.999736
0.999907
0.998753
1.00012
0.998004
0.999832
1.00165
0.998559
1.00006
0.998973
0.999669
0.999863
0.998788
1.00002
0.998051
0.999639
1.00174
0.998733
0.999868
0.998967
0.999591
0.999814
0.998811
0.999928
0.998037
0.99941
1.00168
0.998873
0.999587
0.998886
0.999479
0.999747
0.998809
0.999816
0.997938
0.999102
1.00124
0.998908
0.999142
0.998667
0.999292
0.999632
0.998762
0.999661
0.997715
0.998652
1.00012
0.998637
0.998407
0.998195
0.998945
0.999419
0.998637
0.99943
0.997307
0.997946
0.997679
0.997647
0.99714
0.997256
0.998271
0.998996
0.998372
0.99907
0.996617
0.996796
0.99296
0.995113
0.994831
0.995441
0.996946
0.998145
0.997859
0.998539
0.995521
0.994788
0.984367
0.989524
0.990467
0.991984
0.994346
0.996412
0.996831
0.997769
0.993957
0.991393
0.969527
0.978599
0.982351
0.985604
0.989459
0.993059
0.994887
0.996826
0.992383
0.984968
0.946447
0.959897
0.968107
0.974299
0.980501
0.986432
0.990666
0.994994
0.992985
0.976713
0.912814
0.93041
0.944607
0.955706
0.965607
0.974773
0.983219
0.991339
1.00261
0.965858
0.865553
0.885803
0.906666
0.924356
0.938968
0.950856
0.96411
0.9727
1.02886
1.00674
1.00055
1.00392
0.999619
1.00039
1.00036
1.00036
1.00039
0.999617
1.00397
1.00048
0.997023
0.998278
0.997906
1.00002
1.00004
1.00003
0.999995
0.997886
0.998374
0.996951
0.998313
0.993861
0.997549
0.998832
0.998652
0.998637
0.998803
0.997569
0.993956
0.998164
1.00058
0.992831
0.99879
0.998236
0.997847
0.997835
0.998211
0.998818
0.99288
1.00041
1.00126
0.992704
0.999842
0.997964
0.997795
0.997792
0.99794
0.999865
0.992719
1.00109
1.00093
0.992491
0.999946
0.997422
0.997786
0.997792
0.997395
0.99996
0.99251
1.00072
1.00047
0.992435
0.999585
0.996721
0.997589
0.997601
0.996691
0.99958
0.992455
1.00023
1.0001
0.992728
0.999262
0.996192
0.997393
0.997415
0.996157
0.999234
0.992718
0.999864
0.99978
0.993226
0.999074
0.995933
0.997322
0.997358
0.995887
0.99903
0.993191
0.999525
0.999512
0.993762
0.998946
0.995862
0.997339
0.997391
0.995798
0.998885
0.993719
0.999196
0.999325
0.994276
0.998841
0.9959
0.997387
0.997457
0.995811
0.998764
0.99423
0.998923
0.999231
0.994772
0.99877
0.996019
0.997455
0.997545
0.995905
0.99868
0.99472
0.998716
0.99923
0.995246
0.998739
0.996206
0.99755
0.99766
0.996068
0.998641
0.995176
0.998581
0.999308
0.995695
0.998741
0.996441
0.997667
0.997799
0.996278
0.998634
0.995584
0.998516
0.999451
0.996117
0.998764
0.996702
0.997799
0.997951
0.996515
0.998647
0.995942
0.998496
0.999646
0.996512
0.998802
0.996974
0.997936
0.998107
0.99676
0.998678
0.996257
0.998488
0.999881
0.996888
0.998847
0.997244
0.998073
0.998263
0.997005
0.998724
0.996534
0.998472
1.00014
0.997245
0.998881
0.9975
0.998206
0.998413
0.99724
0.998774
0.99676
0.998439
1.00041
0.997583
0.998888
0.997724
0.998324
0.998549
0.997454
0.99882
0.996927
0.998372
1.00062
0.997902
0.998839
0.997894
0.998415
0.998665
0.99764
0.998851
0.997018
0.998248
1.0007
0.998181
0.998696
0.997975
0.99846
0.998746
0.997787
0.998852
0.997009
0.99803
1.00044
0.998355
0.9984
0.997913
0.998424
0.998772
0.997877
0.998801
0.996865
0.997661
0.999568
0.998264
0.997844
0.997613
0.998245
0.998705
0.99789
0.998673
0.996533
0.997034
0.997545
0.997548
0.996828
0.996899
0.997789
0.998465
0.99779
0.998441
0.995932
0.995981
0.993511
0.99549
0.994925
0.995451
0.996816
0.997904
0.997522
0.998109
0.994978
0.994128
0.986096
0.990824
0.991313
0.992676
0.994854
0.996699
0.996919
0.997695
0.993686
0.991
0.973319
0.981645
0.984608
0.987593
0.991153
0.994322
0.995749
0.997411
0.992655
0.985113
0.952965
0.965461
0.972622
0.978451
0.984157
0.989319
0.992804
0.996657
0.994187
0.977618
0.922425
0.939133
0.952345
0.962892
0.971913
0.979818
0.987053
0.994457
1.0053
0.968301
0.878426
0.898367
0.918664
0.93502
0.947623
0.957336
0.968852
0.976333
1.03268
1.00973
1.00057
1.00387
0.999579
1.00036
1.00032
1.00032
1.00035
0.999575
1.00393
1.0005
0.997055
0.998238
0.997916
1.00005
1.00006
1.00005
1.00002
0.997895
0.998342
0.996983
0.998222
0.993664
0.997382
0.998663
0.998457
0.998441
0.998629
0.997401
0.993764
0.998076
1.00035
0.992506
0.99847
0.997865
0.997436
0.997422
0.997836
0.998493
0.992547
1.00019
1.00116
0.992564
0.999768
0.997822
0.997618
0.997612
0.997794
0.999784
0.992566
1.001
1.00116
0.992774
1.0004
0.997822
0.998182
0.998182
0.997792
1.0004
0.99277
1.00096
1.00099
0.993158
1.00054
0.997635
0.998539
0.998544
0.997599
1.00051
0.993131
1.00079
1.00084
0.993763
1.00054
0.997454
0.998724
0.998738
0.997409
1.0005
0.993697
1.00065
1.0007
0.99444
1.00054
0.997399
0.99888
0.99891
0.99734
1.00049
0.994358
1.00047
1.00055
0.995065
1.0005
0.997431
0.999018
0.999065
0.997353
1.00044
0.994983
1.00026
1.00042
0.9956
1.0004
0.997493
0.999101
0.999171
0.997392
1.00035
0.99553
1.00004
1.00035
0.996064
1.00029
0.997576
0.999139
0.999231
0.997452
1.00024
0.995994
0.99985
1.00032
0.996474
1.00018
0.997686
0.999158
0.999271
0.997539
1.00013
0.99638
0.999719
1.00034
0.996841
1.00009
0.997822
0.999173
0.99931
0.997652
1.00003
0.996709
0.999617
1.00042
0.997166
1.00001
0.997972
0.99919
0.999351
0.997781
0.999939
0.996987
0.999529
1.00055
0.997456
0.999929
0.998126
0.999206
0.999388
0.997914
0.999862
0.997222
0.999445
1.00071
0.997722
0.999854
0.998276
0.99922
0.999422
0.998046
0.999796
0.997415
0.999354
1.0009
0.997969
0.999773
0.998412
0.999229
0.999451
0.998168
0.999737
0.99756
0.999249
1.0011
0.998206
0.999671
0.998523
0.999226
0.999469
0.998277
0.999682
0.997651
0.999111
1.00124
0.998433
0.999526
0.99859
0.999204
0.999473
0.998364
0.999618
0.997673
0.998922
1.00127
0.998638
0.999303
0.998584
0.999148
0.999453
0.998419
0.999533
0.997606
0.998648
1.001
0.998768
0.99895
0.998456
0.999027
0.999392
0.998429
0.999406
0.997413
0.998232
1.00019
0.998677
0.998361
0.998119
0.998785
0.999256
0.998379
0.999218
0.997042
0.997572
0.998322
0.998034
0.997351
0.99741
0.998307
0.99898
0.99824
0.998947
0.996422
0.996503
0.994594
0.996175
0.995528
0.996034
0.997379
0.998437
0.997974
0.99861
0.995477
0.994663
0.9877
0.991919
0.992135
0.993444
0.99557
0.997338
0.997438
0.998241
0.994236
0.991583
0.975685
0.983438
0.985872
0.988712
0.992166
0.99518
0.996414
0.998055
0.993299
0.985757
0.956046
0.968082
0.974559
0.980114
0.985615
0.990512
0.9937
0.997445
0.994948
0.978289
0.925883
0.942445
0.955063
0.965197
0.973868
0.981387
0.988227
0.995386
1.00618
0.968731
0.882499
0.902436
0.922426
0.93815
0.950113
0.959263
0.970326
0.977351
1.03374
1.01001
1.00057
1.00387
0.999579
1.00036
1.00032
1.00032
1.00035
0.999576
1.00393
1.0005
0.997054
0.998237
0.997915
1.00005
1.00006
1.00004
1.00002
0.997895
0.998339
0.99698
0.998223
0.993661
0.997379
0.998659
0.998451
0.998437
0.998627
0.9974
0.99376
0.998073
1.00035
0.992499
0.998467
0.997861
0.99743
0.997417
0.997832
0.998491
0.992543
1.00019
1.00117
0.992555
0.999769
0.99782
0.997616
0.997606
0.997791
0.999784
0.992566
1.00099
1.00117
0.992766
1.0004
0.99782
0.99818
0.998176
0.99779
1.0004
0.992768
1.00096
1.00103
0.993138
1.00053
0.997631
0.998535
0.998539
0.997598
1.00051
0.993126
1.00079
1.00089
0.99373
1.00054
0.997446
0.998718
0.998733
0.997405
1.0005
0.99369
1.00066
1.00074
0.994414
1.00054
0.997387
0.998874
0.998905
0.997334
1.00049
0.994358
1.00046
1.00055
0.995054
1.00051
0.997419
0.999012
0.999061
0.997348
1.00044
0.994995
1.00023
1.00041
0.995599
1.00042
0.997481
0.999095
0.999167
0.997389
1.00035
0.995542
1.00001
1.00033
0.996063
1.0003
0.997562
0.999131
0.999226
0.997447
1.00023
0.996
0.999838
1.0003
0.996473
1.00019
0.997672
0.999147
0.999265
0.997532
1.00011
0.996383
0.99972
1.00032
0.996836
1.00009
0.997806
0.99916
0.999301
0.997641
1.00001
0.996704
0.999634
1.00039
0.997155
1.00001
0.997954
0.999174
0.999338
0.997764
0.999909
0.996979
0.99955
1.00051
0.99744
0.999921
0.998105
0.999187
0.999371
0.997891
0.99983
0.997212
0.999454
1.00067
0.9977
0.999838
0.99825
0.999196
0.999399
0.998019
0.999762
0.997405
0.999349
1.00085
0.99794
0.999748
0.99838
0.999197
0.999421
0.998138
0.9997
0.997549
0.999233
1.00103
0.998168
0.999636
0.998484
0.999187
0.999431
0.99824
0.999637
0.997634
0.999091
1.00117
0.998384
0.999479
0.998541
0.999155
0.999426
0.998321
0.999565
0.997647
0.998899
1.00118
0.998573
0.99924
0.998522
0.999087
0.999395
0.998368
0.999469
0.997567
0.998619
1.0009
0.998683
0.998865
0.998378
0.998951
0.999317
0.998366
0.999327
0.997357
0.998194
1.00005
0.998565
0.998251
0.998017
0.998685
0.999157
0.998296
0.999117
0.996963
0.99752
0.998115
0.997878
0.997207
0.997272
0.998171
0.998845
0.998125
0.998816
0.996309
0.996428
0.994283
0.995943
0.99533
0.995842
0.997188
0.998249
0.997811
0.998437
0.995318
0.99455
0.987249
0.991566
0.99185
0.993173
0.995301
0.997073
0.997201
0.998
0.994016
0.991414
0.975103
0.982933
0.985463
0.988327
0.99178
0.994799
0.996066
0.997706
0.992983
0.985497
0.9554
0.967431
0.974003
0.979591
0.98509
0.989992
0.993219
0.996974
0.994534
0.977971
0.925329
0.941715
0.954322
0.964465
0.973124
0.980633
0.987505
0.994683
1.00553
0.968217
0.881837
0.901596
0.921545
0.937303
0.94928
0.95844
0.969551
0.976649
1.03314
1.00974
1.00055
1.00391
0.999618
1.00039
1.00036
1.00035
1.00039
0.999613
1.00397
1.00048
0.997022
0.998268
0.997893
1.00001
1.00003
1.00002
0.999978
0.997871
0.998366
0.996939
0.998309
0.993857
0.997541
0.998822
0.998636
0.998623
0.99879
0.997558
0.993946
0.998167
1.0006
0.99282
0.998788
0.998232
0.997838
0.997826
0.998209
0.998818
0.99287
1.00042
1.00133
0.992657
0.999843
0.997963
0.997794
0.997786
0.997944
0.999869
0.992706
1.00111
1.001
0.992435
0.999961
0.997422
0.997792
0.997787
0.997401
0.999959
0.992461
1.00079
1.00049
0.992402
0.999611
0.996719
0.997597
0.9976
0.996691
0.999579
0.992383
1.0003
1.00008
0.992715
0.999294
0.996191
0.997405
0.997417
0.996152
0.999241
0.992658
0.999893
0.999746
0.993228
0.999105
0.995931
0.997335
0.997362
0.995877
0.999039
0.993145
0.999524
0.99947
0.99377
0.998972
0.995855
0.99735
0.997395
0.995783
0.998897
0.993676
0.999187
0.999282
0.994288
0.998859
0.99589
0.997395
0.997459
0.995796
0.998783
0.994189
0.998904
0.999194
0.994787
0.998779
0.996007
0.99746
0.997545
0.995888
0.998704
0.994676
0.998693
0.999193
0.995264
0.998743
0.996193
0.997549
0.997658
0.996047
0.998671
0.995134
0.998552
0.999266
0.995711
0.99874
0.996427
0.997662
0.997794
0.996254
0.99867
0.995549
0.99847
0.999405
0.996126
0.998754
0.996685
0.997789
0.997942
0.996486
0.998684
0.995913
0.998437
0.999593
0.996513
0.998779
0.99695
0.99792
0.998094
0.996726
0.998709
0.996233
0.998422
0.999818
0.996878
0.998809
0.997213
0.998051
0.998245
0.996965
0.998746
0.99651
0.998399
1.00006
0.99722
0.99883
0.997458
0.998173
0.998389
0.997196
0.998786
0.996736
0.99836
1.0003
0.997541
0.998824
0.99767
0.99828
0.998519
0.997407
0.99882
0.996901
0.998295
1.00048
0.997834
0.998758
0.997826
0.998358
0.998625
0.99759
0.998839
0.996989
0.998175
1.0005
0.998076
0.998592
0.997889
0.998386
0.998693
0.997731
0.998828
0.996977
0.997955
1.00018
0.998198
0.998265
0.997802
0.998327
0.998699
0.997809
0.99876
0.996823
0.99758
0.999198
0.998023
0.997658
0.997461
0.998107
0.998595
0.997797
0.998605
0.996471
0.996942
0.996997
0.997167
0.99655
0.996673
0.997582
0.99829
0.997646
0.998327
0.99583
0.995864
0.992671
0.994861
0.99448
0.995093
0.996487
0.997617
0.997281
0.997914
0.994804
0.993953
0.984819
0.989802
0.990584
0.992092
0.994321
0.996223
0.996509
0.997355
0.993399
0.990723
0.971575
0.980114
0.983444
0.98664
0.99029
0.993538
0.995054
0.996807
0.992154
0.984623
0.950868
0.963409
0.970921
0.977005
0.982849
0.988129
0.991739
0.995711
0.993451
0.976992
0.920091
0.9365
0.949859
0.960646
0.969857
0.977915
0.985289
0.992789
1.00392
0.96703
0.875396
0.895063
0.915431
0.932104
0.945048
0.955064
0.966822
0.974493
1.03133
1.00928
0.999819
1.00301
0.998896
0.999618
0.999577
0.999575
0.999611
0.998892
1.00306
0.999752
0.995571
0.996399
0.995985
0.997885
0.997892
0.997885
0.997858
0.995966
0.996493
0.995494
0.997459
0.992984
0.996529
0.99756
0.997384
0.997373
0.997534
0.996551
0.993088
0.997328
1.00092
0.993464
0.999457
0.998806
0.998463
0.998453
0.998784
0.999488
0.993524
1.00077
1.00246
0.994336
1.00167
0.999848
0.999745
0.999735
0.999828
1.00168
0.994349
1.00233
1.00258
0.994638
1.00229
0.99994
1.00036
1.00036
0.999922
1.00231
0.994619
1.00244
1.00239
0.994868
1.00218
0.999569
1.00048
1.00048
0.999542
1.00219
0.99484
1.00221
1.00221
0.995321
1.00199
0.999242
1.00047
1.00049
0.999199
1.00199
0.995265
1.00201
1.00199
0.995856
1.00183
0.999051
1.00047
1.0005
0.998991
1.00181
0.995762
1.00179
1.00174
0.996326
1.00163
0.998927
1.00043
1.00047
0.998846
1.00159
0.996205
1.00149
1.00149
0.99672
1.00139
0.99883
1.00034
1.0004
0.998724
1.00135
0.996572
1.00118
1.00128
0.997051
1.00116
0.998766
1.00022
1.0003
0.998634
1.0011
0.996889
1.0009
1.00116
0.997324
1.00095
0.998743
1.00011
1.0002
0.998586
1.00087
0.997171
1.00066
1.00111
0.997565
1.00076
0.99875
0.999996
1.00011
0.998572
1.00067
0.99741
1.00045
1.00111
0.997773
1.00058
0.998772
0.999895
1.00003
0.998581
1.00048
0.997605
1.00026
1.00116
0.997964
1.00042
0.998804
0.999804
0.999952
0.998604
1.00032
0.997758
1.0001
1.00125
0.998145
1.00027
0.998842
0.999723
0.999889
0.998635
1.00018
0.997878
0.999942
1.00138
0.998309
1.00012
0.998875
0.999647
0.999833
0.998671
1.00006
0.997964
0.999776
1.0015
0.998465
0.999958
0.99889
0.999569
0.99978
0.998703
0.999952
0.998005
0.999587
1.00154
0.998602
0.999743
0.998862
0.999476
0.999722
0.998722
0.999847
0.997985
0.999352
1.0014
0.998695
0.99943
0.998755
0.999343
0.999639
0.998711
0.999724
0.99788
0.999031
1.00086
0.998663
0.998936
0.998496
0.999119
0.999496
0.998644
0.999549
0.997642
0.998561
0.999566
0.998286
0.998123
0.997957
0.998711
0.999227
0.998479
0.999279
0.997204
0.997823
0.996861
0.997103
0.996714
0.996892
0.997925
0.998699
0.998132
0.998848
0.996449
0.996615
0.991697
0.994202
0.994132
0.994842
0.996386
0.997651
0.997457
0.998181
0.995232
0.994497
0.982348
0.98798
0.989296
0.990969
0.993406
0.995571
0.996131
0.997165
0.993461
0.990916
0.966565
0.97615
0.980439
0.983916
0.987898
0.991642
0.993669
0.995765
0.991514
0.984112
0.942669
0.956467
0.965302
0.971744
0.978088
0.984194
0.988687
0.99324
0.991586
0.975463
0.907536
0.92528
0.940194
0.951747
0.961897
0.971256
0.979952
0.988272
1.00009
0.963382
0.858148
0.878373
0.899966
0.918405
0.933678
0.946142
0.959881
0.968761
1.02578
1.00528
1.0036
1.00678
1.00306
1.00396
1.00392
1.00392
1.00396
1.00306
1.00684
1.00355
0.996318
0.996946
0.996476
0.99835
0.99831
0.998303
0.998332
0.996472
0.99707
0.996278
0.994239
0.989818
0.993041
0.993916
0.993711
0.993703
0.9939
0.993062
0.98994
0.994165
0.99561
0.987859
0.99348
0.992835
0.992484
0.992477
0.992815
0.993496
0.987912
0.995507
0.996332
0.987419
0.994325
0.992664
0.992495
0.992484
0.99264
0.99433
0.987416
0.996197
0.996276
0.987475
0.994607
0.992421
0.992675
0.992664
0.992409
0.994607
0.987419
0.996113
0.996341
0.988129
0.994826
0.992359
0.993029
0.993033
0.992356
0.994822
0.988038
0.996146
0.996656
0.989271
0.99528
0.992657
0.99362
0.993634
0.992635
0.995263
0.989154
0.996425
0.997017
0.990526
0.995822
0.993166
0.994307
0.994332
0.993121
0.995792
0.990387
0.996742
0.997322
0.99167
0.996311
0.993722
0.994953
0.994987
0.993655
0.996259
0.991501
0.996994
0.997582
0.992679
0.996716
0.994264
0.995516
0.995562
0.994176
0.996643
0.992462
0.997187
0.997862
0.993554
0.997054
0.99478
0.995999
0.996064
0.994668
0.996972
0.993301
0.997348
0.998177
0.994291
0.997352
0.995273
0.996417
0.996502
0.995135
0.997271
0.994032
0.997481
0.998484
0.994933
0.997625
0.995738
0.996779
0.996886
0.995572
0.997526
0.994663
0.997592
0.9988
0.995496
0.997863
0.996166
0.997096
0.997222
0.995973
0.997737
0.995179
0.997712
0.999123
0.995999
0.99807
0.996554
0.997371
0.997517
0.99634
0.997929
0.995588
0.99784
0.999437
0.99646
0.998245
0.996902
0.997609
0.997774
0.996672
0.998096
0.99592
0.997928
0.999749
0.996875
0.998377
0.997201
0.997808
0.997994
0.996965
0.998235
0.996183
0.997958
1.00003
0.997246
0.998439
0.997438
0.997963
0.998174
0.997214
0.998342
0.996369
0.997923
1.00022
0.997559
0.9984
0.997594
0.998064
0.998307
0.997412
0.998404
0.996462
0.997805
1.00019
0.997799
0.998219
0.997633
0.998088
0.998377
0.997546
0.998408
0.996438
0.997565
0.999696
0.997898
0.997833
0.997484
0.997984
0.998347
0.99759
0.998324
0.996253
0.99714
0.998402
0.99764
0.9971
0.997012
0.997653
0.998147
0.997497
0.998106
0.995836
0.996412
0.99567
0.996537
0.995739
0.995952
0.996872
0.997622
0.997167
0.99768
0.995071
0.995182
0.990199
0.993507
0.993093
0.993748
0.995186
0.996463
0.996427
0.996958
0.993811
0.993009
0.979393
0.986282
0.987803
0.989371
0.991734
0.994022
0.994858
0.995766
0.991942
0.989328
0.960087
0.971501
0.977303
0.980947
0.985035
0.989176
0.99176
0.99392
0.989789
0.982348
0.931807
0.948323
0.959447
0.966184
0.972781
0.979581
0.985086
0.990093
0.989188
0.973431
0.888145
0.910076
0.928072
0.940449
0.951496
0.962108
0.972521
0.982057
0.995914
0.960592
0.829547
0.85106
0.874024
0.894398
0.912339
0.927541
0.944306
0.955703
1.01605
1.00186
0.999563
1.00354
0.999752
1.00048
1.00049
1.00049
1.00047
0.999751
1.00356
0.999502
0.994941
0.996229
0.995482
0.996924
0.996953
0.996949
0.996911
0.995479
0.996282
0.994863
0.999324
0.994121
0.997298
0.99815
0.998051
0.998044
0.998137
0.99732
0.994179
0.999164
1.0038
0.995502
1.00075
1.00041
1.00017
1.00017
1.00041
1.00078
0.99554
1.00362
1.00493
0.996245
1.00232
1.00113
1.00101
1.00102
1.00113
1.00236
0.996251
1.00477
1.00438
0.99621
1.00248
1.00084
1.00105
1.00106
1.00081
1.00249
0.996185
1.00424
1.00369
0.996285
1.00233
1.0004
1.00092
1.00092
1.00034
1.00231
0.996245
1.00355
1.00313
0.996593
1.00217
1.00003
1.00079
1.00079
0.999976
1.00211
0.996553
1.00296
1.00259
0.996934
1.00196
0.999712
1.00062
1.00063
0.999662
1.00187
0.9969
1.00238
1.00208
0.997195
1.00168
0.999419
1.00042
1.00045
0.999368
1.00157
0.997186
1.00181
1.00165
0.997392
1.00139
0.999183
1.00022
1.00027
0.999122
1.00127
0.997412
1.00132
1.00134
0.997589
1.00115
0.999033
1.00006
1.00012
0.998959
1.00101
0.997595
1.00094
1.00115
0.9978
1.00095
0.998955
0.99995
1.00001
0.998866
1.00078
0.997741
1.00066
1.00106
0.997981
1.00079
0.998931
0.999874
0.999943
0.998825
1.00062
0.997875
1.00044
1.00105
0.998153
1.00067
0.998948
0.999825
0.999903
0.998823
1.00051
0.998003
1.00026
1.00112
0.998319
1.00058
0.998993
0.999794
0.999884
0.998846
1.0004
0.998116
1.00011
1.00126
0.998481
1.0005
0.999052
0.999777
0.999884
0.998888
1.00033
0.998209
0.999981
1.00146
0.998666
1.00042
0.99912
0.999775
0.999903
0.99895
1.00029
0.998279
0.999869
1.00168
0.998895
1.00031
0.999185
0.999783
0.999941
0.99903
1.00027
0.998331
0.999761
1.00187
0.999181
1.00014
0.999228
0.999792
0.999991
0.999122
1.00026
0.998356
0.999638
1.00186
0.999485
0.999858
0.999201
0.999782
1.00004
0.999219
1.00026
0.998337
0.999472
1.00136
0.99967
0.999379
0.999021
0.9997
1.00007
0.999306
1.00024
0.998249
0.999209
0.999842
0.99943
0.99852
0.998515
0.999408
0.999989
0.999342
1.00019
0.998041
0.99875
0.996388
0.99802
0.996924
0.997347
0.998625
0.999606
0.999225
1.00003
0.997628
0.997915
0.989478
0.993883
0.993718
0.994797
0.996751
0.998498
0.998728
0.999678
0.996896
0.996295
0.975547
0.983922
0.987088
0.989551
0.992683
0.995822
0.997302
0.998894
0.995746
0.993318
0.95134
0.965041
0.974145
0.979239
0.98448
0.990059
0.99399
0.997404
0.994674
0.987356
0.923416
0.942937
0.954681
0.961835
0.969719
0.978498
0.986192
0.993269
0.995321
0.979779
0.881457
0.90358
0.920651
0.931704
0.944104
0.957626
0.971695
0.984622
1.00505
0.971059
0.817718
0.832855
0.856147
0.877934
0.897898
0.915744
0.936305
0.950941
1.02412
1.0239
0.782415
0.794669
0.816153
0.840273
0.863024
0.882288
0.906267
0.917006
0.996342
1.02262
0.757589
0.767671
0.788365
0.812714
0.83615
0.856258
0.881682
0.893883
0.968529
1.0386
0.731383
0.740098
0.760128
0.783566
0.806248
0.825792
0.851003
0.866936
0.932041
1.03894
0.70431
0.711823
0.731424
0.753249
0.77407
0.792035
0.81526
0.834186
0.888591
1.00887
0.67672
0.682989
0.702189
0.722036
0.740538
0.756245
0.776155
0.795587
0.838799
0.956789
0.648877
0.653733
0.67233
0.689736
0.705361
0.718275
0.734419
0.752904
0.785203
0.892279
0.620961
0.624206
0.641724
0.656297
0.668704
0.678355
0.690285
0.706677
0.730168
0.821367
0.593058
0.594534
0.610376
0.621824
0.63084
0.637026
0.644683
0.657763
0.674372
0.747782
0.565214
0.564913
0.578499
0.586631
0.591969
0.59437
0.597466
0.606468
0.617246
0.674183
0.537552
0.535572
0.546374
0.550818
0.551661
0.549588
0.547899
0.552557
0.558235
0.600678
0.510163
0.506517
0.513913
0.513904
0.509603
0.502837
0.496807
0.497146
0.498495
0.528468
0.482921
0.477512
0.480694
0.475615
0.466324
0.455321
0.445597
0.441952
0.439693
0.459482
0.455575
0.448271
0.446706
0.436603
0.422895
0.408304
0.395541
0.388534
0.383381
0.395254
0.427897
0.418697
0.412408
0.397784
0.380302
0.362806
0.347725
0.33813
0.330796
0.336848
0.399826
0.388959
0.378322
0.359791
0.339212
0.319544
0.302861
0.291444
0.282541
0.28447
0.371583
0.35928
0.344777
0.32302
0.300063
0.278935
0.26128
0.248674
0.238646
0.237633
0.343351
0.329802
0.311999
0.287731
0.263113
0.241162
0.223037
0.209679
0.198792
0.195531
0.315178
0.30066
0.280176
0.254108
0.228519
0.206281
0.188044
0.174223
0.162688
0.157704
0.287158
0.272007
0.249486
0.22231
0.196401
0.174314
0.156273
0.142233
0.130285
0.123735
0.259478
0.244028
0.22012
0.192503
0.166859
0.145333
0.127681
0.113467
0.101328
0.0934826
0.232396
0.216935
0.192282
0.164852
0.139989
0.119255
0.102086
0.0879757
0.0760837
0.0674698
0.206206
0.190961
0.16618
0.139483
0.115806
0.096016
0.0796488
0.0661327
0.0550102
0.0462461
0.181214
0.166347
0.141995
0.116512
0.094264
0.0757251
0.0605667
0.0481553
0.0382455
0.0301084
0.157696
0.143325
0.119872
0.096017
0.0754073
0.0584488
0.0448748
0.0339938
0.0255979
0.0186913
0.135877
0.122094
0.0999305
0.0779551
0.0592264
0.0441344
0.0324331
0.023315
0.0165365
0.011118
0.115922
0.102805
0.082244
0.0622888
0.0456443
0.0326253
0.0229189
0.0155784
0.0103466
0.00638193
0.0979304
0.085539
0.0668138
0.048969
0.034532
0.0236572
0.0158783
0.0101707
0.00629995
0.00356825
0.0819298
0.0703242
0.0535309
0.0378764
0.0256816
0.0168681
0.0108148
0.00651205
0.00375462
0.00195664
0.067881
0.0571723
0.0422871
0.0288389
0.0188006
0.0118512
0.00725956
0.0041095
0.00220446
0.00105451
0.0557005
0.0460398
0.0329544
0.0216397
0.013582
0.0082388
0.00483141
0.0025852
0.0012936
0.000565669
0.796914
0.814733
0.83832
0.861497
0.882782
0.900332
0.921006
0.929086
0.998883
1.00023
0.773832
0.789637
0.813925
0.838168
0.860451
0.878885
0.901487
0.910383
0.978031
1.01128
0.74843
0.762635
0.787817
0.812848
0.835478
0.853857
0.876918
0.888926
0.950109
1.01645
0.721454
0.733724
0.759598
0.785059
0.807766
0.825764