/*--------------------------------*- C++ -*----------------------------------*\
| =========                 |                                                 |
| \\      /  F ield         | OpenFOAM: The Open Source CFD Toolbox           |
|  \\    /   O peration     | Version:  4.1                                   |
|   \\  /    A nd           | Web:      www.OpenFOAM.org                      |
|    \\/     M anipulation  |                                                 |
\*---------------------------------------------------------------------------*/
FoamFile
{
    version     2.0;
    format      ascii;
    class       volScalarField;
    location    "80";
    object      T;
}
// * * * * * * * * * * * * * * * * * * * * * * * * * * * * * * * * * * * * * //

dimensions      [0 0 0 1 0 0 0];

internalField   nonuniform List<scalar> 
12000
(
0.999583
1.00358
0.999807
1.00054
1.00055
1.00055
1.00053
0.999806
1.00359
0.999558
0.994979
0.996274
0.99554
0.996991
0.997021
0.997014
0.996979
0.995539
0.996307
0.994933
0.999372
0.994202
0.997396
0.998257
0.998159
0.998157
0.99825
0.997414
0.994232
0.999302
1.00385
0.995572
1.00083
1.00049
1.00029
1.00027
1.00049
1.00085
0.99556
1.00374
1.00496
0.996286
1.00237
1.00118
1.00117
1.00107
1.00118
1.00239
0.996229
1.00482
1.00441
0.996219
1.0025
1.00085
1.00118
1.00107
1.00085
1.00249
0.996173
1.00423
1.00371
0.996266
1.00232
1.00037
1.00095
1.00093
1.00035
1.00228
0.996255
1.00349
1.00314
0.996556
1.00214
0.999989
1.00075
1.00079
0.999954
1.00209
0.996577
1.00289
1.00259
0.996884
1.00192
0.999662
1.00054
1.00062
0.999612
1.00184
0.996919
1.00231
1.00208
0.997164
1.00163
0.999363
1.00033
1.00042
0.999312
1.00155
0.997198
1.00175
1.00166
0.997373
1.00134
0.999144
1.00014
1.00023
0.999067
1.00125
0.997411
1.00127
1.00135
0.997551
1.0011
0.999011
0.999983
1.00009
0.998896
1.00101
0.997585
1.0009
1.00117
0.997754
1.0009
0.998942
0.999873
0.999988
0.998808
1.00081
0.997746
1.00064
1.00109
0.997946
1.00075
0.998924
0.999801
0.999921
0.998776
1.00065
0.997891
1.00043
1.00109
0.998131
1.00065
0.998945
0.999761
0.999884
0.998784
1.00053
0.998022
1.00025
1.00117
0.99832
1.00058
0.998998
0.999745
0.999871
0.998822
1.00043
0.99814
1.0001
1.00134
0.998517
1.00052
0.999075
0.999749
0.999879
0.998879
1.00035
0.99824
0.999982
1.00159
0.998741
1.00048
0.999168
0.999771
0.999906
0.998953
1.0003
0.99832
0.999874
1.0019
0.999021
1.00043
0.999272
0.999812
0.999954
0.999047
1.00026
0.998379
0.999774
1.00224
0.999403
1.00036
0.999384
0.999873
1.00004
0.999162
1.00026
0.998415
0.99967
1.00251
0.999886
1.00023
0.999481
0.999949
1.00015
0.999301
1.00029
0.998422
0.999535
1.0025
1.00041
1.00002
0.99952
1.00002
1.0003
0.99947
1.00034
0.998381
0.999325
1.00187
1.00082
0.999636
0.999398
1.00003
1.00044
0.999664
1.0004
0.998257
0.998949
0.999993
1.00063
0.998908
0.998915
0.999808
1.00046
0.999836
1.00044
0.997987
0.998249
0.995781
0.998711
0.99727
0.997598
0.998945
1.00012
0.999873
1.00046
0.997494
0.996836
0.986919
0.992785
0.993443
0.994499
0.996611
0.998767
0.999402
1.00033
0.996759
0.994194
0.967664
0.97858
0.984617
0.987666
0.991302
0.995311
0.997804
1.00003
0.996351
0.988715
0.942772
0.959747
0.969775
0.974882
0.980624
0.987279
0.99288
0.998042
0.998258
0.981812
0.910151
0.93054
0.944026
0.952188
0.961623
0.97224
0.983349
0.993323
1.00998
0.973729
0.85493
0.872231
0.893482
0.910246
0.925008
0.938271
0.955032
0.966339
1.03383
1.02607
1.00359
1.00675
1.00301
1.00391
1.00387
1.00387
1.00391
1.00301
1.00679
1.00354
0.996298
0.996863
0.996392
0.998265
0.998221
0.998219
0.99825
0.996387
0.996959
0.99624
0.994235
0.98974
0.992956
0.993843
0.993639
0.993629
0.993825
0.99297
0.989826
0.994131
0.995617
0.987826
0.993448
0.992816
0.99245
0.99245
0.992795
0.993474
0.987909
0.995468
0.996341
0.987434
0.994339
0.992675
0.992441
0.992501
0.992655
0.994364
0.987536
0.996152
0.996289
0.987519
0.994654
0.992459
0.992628
0.99271
0.992432
0.994668
0.987594
0.9961
0.996358
0.988188
0.994892
0.992426
0.993038
0.993084
0.992389
0.994891
0.988212
0.996185
0.996679
0.989334
0.995353
0.992736
0.993675
0.993693
0.992687
0.995322
0.989299
0.996501
0.997048
0.990589
0.995896
0.993258
0.994389
0.994402
0.993189
0.995847
0.990509
0.996832
0.997382
0.991706
0.996379
0.99382
0.995045
0.995067
0.993727
0.996308
0.991606
0.997084
0.997659
0.992694
0.996788
0.994352
0.995607
0.995644
0.994246
0.996688
0.992571
0.997263
0.99792
0.993586
0.997137
0.99486
0.996091
0.996143
0.994747
0.997011
0.993425
0.997413
0.998232
0.99434
0.997447
0.99535
0.996512
0.996581
0.995217
0.997297
0.994152
0.997556
0.998558
0.994991
0.997733
0.995819
0.996883
0.99697
0.995658
0.997555
0.994768
0.997682
0.9989
0.99557
0.997979
0.996257
0.997209
0.997315
0.996067
0.997782
0.99528
0.997811
0.999267
0.996089
0.998201
0.996663
0.997499
0.997622
0.996445
0.997983
0.995692
0.997947
0.999649
0.996576
0.998401
0.997036
0.997757
0.997898
0.996793
0.998168
0.996032
0.99805
1.00003
0.997049
0.998579
0.997374
0.997988
0.998147
0.99711
0.998342
0.996307
0.998102
1.0004
0.997513
0.998718
0.997672
0.998192
0.998371
0.997393
0.998497
0.996516
0.998094
1.00074
0.997959
0.998789
0.997914
0.998364
0.998566
0.997642
0.998621
0.996647
0.998012
1.00093
0.998396
0.998769
0.998077
0.998493
0.998727
0.997851
0.998697
0.996678
0.997825
1.0008
0.99879
0.998629
0.998121
0.998552
0.998836
0.998005
0.998712
0.996571
0.997474
1.00013
0.999009
0.998289
0.997973
0.998484
0.998854
0.998081
0.998637
0.996268
0.99685
0.998489
0.998754
0.997589
0.99746
0.998143
0.998685
0.998028
0.99843
0.995676
0.995767
0.994986
0.99728
0.996112
0.996216
0.997228
0.99813
0.997746
0.99805
0.994678
0.993813
0.987718
0.992911
0.992863
0.993463
0.995077
0.996704
0.996949
0.997418
0.993219
0.990455
0.973182
0.982378
0.985657
0.987695
0.99054
0.993567
0.995164
0.99653
0.99171
0.984009
0.949881
0.963931
0.972044
0.976606
0.981467
0.986687
0.990691
0.994386
0.992202
0.975763
0.913835
0.933201
0.947496
0.956733
0.965192
0.97363
0.981961
0.989458
1.0009
0.964594
0.86334
0.883062
0.902809
0.919579
0.933832
0.945722
0.959429
0.96802
1.02453
1.00604
0.999819
1.00301
0.998896
0.999618
0.999577
0.999576
0.999614
0.998897
1.00306
0.999753
0.99557
0.996402
0.996001
0.997902
0.997907
0.9979
0.997879
0.995984
0.996495
0.9955
0.997443
0.992971
0.996511
0.997542
0.997367
0.997353
0.997516
0.99653
0.993067
0.997308
1.00089
0.993464
0.999435
0.998787
0.998441
0.998433
0.998761
0.999463
0.993525
1.00074
1.00244
0.994355
1.00165
0.999837
0.999728
0.999735
0.999809
1.00167
0.99438
1.00229
1.00257
0.994671
1.00229
0.999948
1.00038
1.00037
0.999918
1.0023
0.99466
1.00242
1.0024
0.994906
1.00219
0.999594
1.00053
1.00051
0.999563
1.00219
0.994867
1.00223
1.00224
0.995356
1.00201
0.999272
1.00055
1.00052
0.999244
1.00201
0.995289
1.00204
1.00203
0.995891
1.00186
0.999089
1.00056
1.00054
0.999053
1.00184
0.995789
1.00183
1.00177
0.996365
1.00168
0.998968
1.00052
1.00052
0.998915
1.00164
0.996243
1.00153
1.00152
0.996758
1.00145
0.998866
1.00043
1.00046
0.9988
1.00139
0.996626
1.0012
1.00133
0.99709
1.00121
0.998798
1.00032
1.00036
0.998716
1.00114
0.996951
1.00092
1.00122
0.997367
1.001
0.998771
1.0002
1.00026
0.99867
1.00091
0.997232
1.00068
1.00116
0.997618
1.00082
0.99878
1.00009
1.00017
0.998657
1.0007
0.99747
1.00049
1.00117
0.99784
1.00065
0.998813
0.999987
1.0001
0.998669
1.00052
0.997663
1.00032
1.00125
0.998036
1.0005
0.998861
0.999902
1.00003
0.998698
1.00037
0.997817
1.00017
1.00138
0.998228
1.00037
0.99892
0.999831
0.999981
0.998739
1.00025
0.997941
1.00002
1.00156
0.998431
1.00025
0.998984
0.999776
0.999944
0.998788
1.00015
0.998039
0.999868
1.00176
0.998653
1.00014
0.999044
0.999732
0.99992
0.998841
1.00008
0.998103
0.999693
1.00193
0.998892
1
0.999083
0.999691
0.999904
0.998892
1.00001
0.998114
0.999489
1.002
0.999145
0.999813
0.999076
0.999641
0.999887
0.998933
0.999931
0.998051
0.999218
1.00181
0.999377
0.999525
0.998982
0.999554
0.999854
0.998954
0.999834
0.99788
0.998819
1.0011
0.999453
0.999061
0.998723
0.999375
0.999773
0.998934
0.999689
0.997548
0.998185
0.999401
0.99906
0.998257
0.998143
0.998979
0.999565
0.998835
0.999461
0.996968
0.997137
0.995904
0.997529
0.996727
0.996929
0.998116
0.999066
0.998589
0.999132
0.996032
0.995273
0.98924
0.993555
0.99363
0.994453
0.996273
0.997909
0.99799
0.998679
0.994708
0.99208
0.977256
0.985086
0.987485
0.989625
0.992599
0.995488
0.996741
0.998241
0.993496
0.985938
0.958081
0.969867
0.976136
0.980663
0.985517
0.990336
0.993641
0.997221
0.994665
0.978083
0.929321
0.944895
0.956564
0.965383
0.973378
0.980929
0.987976
0.994888
1.00523
0.967808
0.887519
0.905519
0.923403
0.938275
0.950445
0.960194
0.971545
0.978325
1.03315
1.00974
1.00055
1.00392
0.999619
1.00039
1.00036
1.00036
1.00039
0.999617
1.00397
1.00048
0.997023
0.998278
0.997906
1.00002
1.00004
1.00003
0.999995
0.997886
0.998374
0.996951
0.998313
0.993861
0.997549
0.998832
0.998652
0.998637
0.998803
0.997569
0.993956
0.998164
1.00058
0.992831
0.99879
0.998236
0.997847
0.997835
0.998211
0.998818
0.99288
1.00041
1.00126
0.992704
0.999842
0.997964
0.997795
0.997792
0.99794
0.999865
0.992719
1.00109
1.00093
0.992491
0.999946
0.997422
0.997786
0.997792
0.997396
0.99996
0.99251
1.00072
1.00047
0.992435
0.999585
0.996721
0.997589
0.997602
0.996691
0.99958
0.992455
1.00023
1.0001
0.992728
0.999262
0.996193
0.997394
0.997415
0.996157
0.999234
0.992718
0.999864
0.99978
0.993226
0.999074
0.995934
0.997323
0.997358
0.995888
0.999031
0.993192
0.999526
0.999513
0.993763
0.998947
0.995863
0.997339
0.997392
0.995799
0.998886
0.99372
0.999197
0.999327
0.994278
0.998843
0.995901
0.997388
0.997459
0.995812
0.998765
0.994232
0.998924
0.999234
0.994774
0.998773
0.996022
0.997458
0.997547
0.995908
0.998683
0.994723
0.998719
0.999235
0.99525
0.998743
0.99621
0.997553
0.997663
0.996072
0.998645
0.995179
0.998586
0.999316
0.995703
0.998748
0.996447
0.997673
0.997805
0.996284
0.99864
0.99559
0.998522
0.999465
0.996129
0.998775
0.996712
0.997809
0.99796
0.996524
0.998656
0.995951
0.998506
0.999668
0.996532
0.99882
0.99699
0.997951
0.998122
0.996774
0.998692
0.996272
0.998503
0.999918
0.996921
0.998875
0.997271
0.998097
0.998286
0.997027
0.998746
0.996556
0.998496
1.0002
0.997298
0.998928
0.997542
0.998244
0.998448
0.997273
0.998807
0.996794
0.998474
1.00051
0.997672
0.998964
0.997792
0.998384
0.998604
0.997505
0.998869
0.996976
0.998424
1.0008
0.998052
0.998966
0.998003
0.998511
0.99875
0.997718
0.998925
0.997091
0.998324
1.001
0.998435
0.998908
0.998153
0.998613
0.998879
0.997905
0.998963
0.997117
0.99814
1.00096
0.998792
0.998758
0.998208
0.998671
0.998982
0.998059
0.998966
0.997023
0.99782
1.00048
0.999018
0.99845
0.998104
0.998646
0.999038
0.998171
0.99892
0.996762
0.997263
0.999131
0.998847
0.997857
0.997719
0.998447
0.998997
0.998225
0.99881
0.996265
0.996306
0.99621
0.997701
0.99666
0.996817
0.997895
0.998759
0.998203
0.998667
0.995462
0.994589
0.99056
0.994503
0.994194
0.994929
0.996619
0.998077
0.997993
0.998545
0.994393
0.99165
0.980416
0.987567
0.989273
0.991244
0.99401
0.996541
0.997453
0.99872
0.993694
0.986024
0.963715
0.97459
0.979914
0.984213
0.9887
0.992866
0.995519
0.998703
0.995743
0.978898
0.937825
0.952484
0.963239
0.971654
0.978939
0.985392
0.991375
0.9977
1.00772
0.970112
0.89916
0.916717
0.934029
0.947684
0.958027
0.965801
0.975609
0.981465
1.03661
1.01251
1.00057
1.00387
0.999579
1.00036
1.00032
1.00032
1.00035
0.999575
1.00393
1.0005
0.997055
0.998238
0.997916
1.00005
1.00006
1.00005
1.00002
0.997895
0.998342
0.996983
0.998222
0.993664
0.997382
0.998663
0.998457
0.998441
0.998629
0.997401
0.993764
0.998076
1.00035
0.992506
0.99847
0.997865
0.997436
0.997422
0.997836
0.998493
0.992547
1.00019
1.00116
0.992564
0.999768
0.997822
0.997618
0.997612
0.997794
0.999784
0.992567
1.001
1.00116
0.992774
1.0004
0.997822
0.998182
0.998182
0.997792
1.0004
0.99277
1.00096
1.00099
0.993158
1.00054
0.997635
0.998539
0.998544
0.997599
1.00051
0.993131
1.00079
1.00084
0.993764
1.00054
0.997455
0.998724
0.998738
0.997409
1.0005
0.993697
1.00065
1.0007
0.99444
1.00054
0.997399
0.998881
0.99891
0.997341
1.00049
0.994359
1.00047
1.00055
0.995066
1.0005
0.997432
0.999018
0.999066
0.997354
1.00044
0.994984
1.00026
1.00043
0.995602
1.00041
0.997495
0.999103
0.999172
0.997394
1.00035
0.995532
1.00004
1.00035
0.996067
1.00029
0.997578
0.999141
0.999233
0.997454
1.00024
0.995997
0.999853
1.00033
0.996479
1.00019
0.99769
0.999162
0.999274
0.997542
1.00013
0.996384
0.999723
1.00035
0.996848
1.0001
0.997828
0.999179
0.999316
0.997658
1.00003
0.996715
0.999623
1.00043
0.997178
1.00002
0.997982
0.9992
0.99936
0.99779
0.999948
0.996997
0.999539
1.00057
0.997475
0.999946
0.998142
0.999221
0.999402
0.997928
0.999876
0.997236
0.99946
1.00075
0.997754
0.999882
0.998301
0.999243
0.999444
0.998067
0.999817
0.997436
0.999377
1.00096
0.998022
0.999818
0.998453
0.999266
0.999485
0.998201
0.999769
0.997592
0.999283
1.0012
0.998293
0.999746
0.998589
0.999285
0.999523
0.998327
0.99973
0.997699
0.999162
1.00141
0.998579
0.99965
0.998697
0.999298
0.999557
0.99844
0.999691
0.997745
0.998997
1.00156
0.998885
0.99951
0.998758
0.999297
0.999583
0.998535
0.999641
0.997712
0.998757
1.00151
0.999192
0.999296
0.998743
0.999268
0.999596
0.998607
0.999568
0.997568
0.998388
1.00107
0.999406
0.998947
0.998595
0.999175
0.99958
0.998653
0.999459
0.997267
0.997796
0.999848
0.999285
0.998344
0.998202
0.998944
0.999496
0.998664
0.999308
0.996748
0.996822
0.997188
0.9983
0.997197
0.997349
0.99842
0.999263
0.998635
0.999154
0.99595
0.995114
0.991989
0.995451
0.9949
0.995608
0.997268
0.998666
0.998476
0.999066
0.994925
0.992218
0.982514
0.989125
0.990344
0.992211
0.994906
0.997312
0.998056
0.999322
0.994308
0.986645
0.966418
0.976863
0.98155
0.985628
0.989963
0.993911
0.996309
0.999417
0.996455
0.979531
0.940794
0.955323
0.965522
0.973584
0.980587
0.986722
0.992373
0.998506
1.00851
0.970484
0.902664
0.9202
0.937224
0.9503
0.960082
0.967378
0.976815
0.982291
1.03754
1.0127
1.00057
1.00387
0.999579
1.00036
1.00032
1.00032
1.00035
0.999576
1.00393
1.0005
0.997054
0.998237
0.997915
1.00005
1.00006
1.00004
1.00002
0.997895
0.998339
0.99698
0.998223
0.993661
0.997379
0.998659
0.998451
0.998437
0.998627
0.9974
0.99376
0.998073
1.00035
0.992499
0.998467
0.997861
0.99743
0.997417
0.997832
0.998491
0.992543
1.00019
1.00117
0.992555
0.999769
0.99782
0.997616
0.997606
0.997791
0.999784
0.992566
1.001
1.00117
0.992766
1.0004
0.997821
0.99818
0.998176
0.99779
1.0004
0.992768
1.00096
1.00103
0.993138
1.00053
0.997631
0.998535
0.99854
0.997598
1.00051
0.993126
1.00079
1.00089
0.99373
1.00054
0.997446
0.998718
0.998733
0.997405
1.0005
0.993691
1.00066
1.00074
0.994414
1.00054
0.997388
0.998874
0.998905
0.997335
1.00049
0.994359
1.00047
1.00055
0.995055
1.00051
0.997419
0.999013
0.999062
0.997349
1.00044
0.994995
1.00023
1.00041
0.995601
1.00042
0.997482
0.999097
0.999168
0.99739
1.00035
0.995543
1.00002
1.00033
0.996066
1.00031
0.997565
0.999133
0.999228
0.997449
1.00023
0.996003
0.999841
1.0003
0.996477
1.0002
0.997676
0.999151
0.999268
0.997535
1.00012
0.996386
0.999724
1.00032
0.996844
1.0001
0.997813
0.999166
0.999307
0.997647
1.00001
0.99671
0.99964
1.00041
0.997167
1.00002
0.997964
0.999183
0.999347
0.997773
0.999918
0.996988
0.99956
1.00053
0.99746
0.999939
0.998121
0.999202
0.999385
0.997905
0.999844
0.997227
0.999469
1.0007
0.997732
0.999866
0.998275
0.999219
0.999422
0.99804
0.999784
0.997427
0.999372
1.00091
0.997993
0.999795
0.998421
0.999235
0.999455
0.998171
0.999732
0.997581
0.999267
1.00113
0.998255
0.999712
0.99855
0.999246
0.999485
0.998291
0.999686
0.997683
0.999142
1.00134
0.99853
0.999604
0.998648
0.999249
0.99951
0.998397
0.999638
0.997719
0.998974
1.00148
0.998822
0.999447
0.998697
0.999238
0.999526
0.998485
0.999578
0.997673
0.998728
1.00141
0.99911
0.999215
0.998667
0.999193
0.999523
0.998545
0.99949
0.997512
0.998351
1.00094
0.999301
0.998843
0.998497
0.999079
0.999483
0.998572
0.999359
0.997189
0.997745
0.999657
0.999142
0.998209
0.998072
0.998814
0.999365
0.998552
0.99918
0.996637
0.996749
0.996902
0.998089
0.997016
0.99717
0.99824
0.999084
0.998478
0.998985
0.995795
0.995004
0.991578
0.995133
0.994644
0.995359
0.997016
0.998415
0.99825
0.998833
0.994711
0.992054
0.98199
0.988672
0.989979
0.991862
0.99455
0.996955
0.997726
0.998987
0.994003
0.986394
0.965849
0.976285
0.981058
0.985159
0.989483
0.993427
0.995856
0.998969
0.996058
0.979228
0.940333
0.954682
0.964865
0.972926
0.979907
0.986022
0.991694
0.997837
1.00789
0.96999
0.902101
0.919459
0.936439
0.949544
0.95933
0.966626
0.976101
0.981639
1.03698
1.01246
1.00055
1.00391
0.999618
1.00039
1.00036
1.00035
1.00039
0.999613
1.00397
1.00048
0.997022
0.998268
0.997893
1.00001
1.00003
1.00002
0.999978
0.997871
0.998366
0.996939
0.998309
0.993857
0.997541
0.998822
0.998636
0.998623
0.99879
0.997558
0.993946
0.998167
1.0006
0.99282
0.998788
0.998232
0.997838
0.997826
0.998209
0.998818
0.99287
1.00042
1.00133
0.992657
0.999843
0.997963
0.997794
0.997786
0.997944
0.999869
0.992706
1.00111
1.001
0.992435
0.999961
0.997422
0.997792
0.997787
0.997401
0.999959
0.992461
1.00079
1.00049
0.992402
0.999611
0.996719
0.997598
0.9976
0.996692
0.999579
0.992383
1.0003
1.00008
0.992716
0.999295
0.996191
0.997405
0.997418
0.996152
0.999241
0.992658
0.999893
0.999747
0.993228
0.999106
0.995931
0.997336
0.997363
0.995878
0.99904
0.993146
0.999524
0.999471
0.993771
0.998973
0.995856
0.997351
0.997396
0.995784
0.998898
0.993677
0.999188
0.999284
0.99429
0.99886
0.995891
0.997396
0.99746
0.995797
0.998785
0.99419
0.998906
0.999197
0.99479
0.998782
0.996009
0.997462
0.997548
0.99589
0.998706
0.994679
0.998696
0.999198
0.995268
0.998747
0.996197
0.997553
0.997662
0.996051
0.998674
0.995137
0.998556
0.999274
0.995718
0.998747
0.996434
0.997668
0.9978
0.99626
0.998676
0.995555
0.998477
0.999419
0.996138
0.998765
0.996696
0.997798
0.997951
0.996495
0.998693
0.995923
0.998447
0.999616
0.996533
0.998797
0.996967
0.997935
0.998108
0.99674
0.998723
0.996248
0.998437
0.999855
0.996911
0.998838
0.997239
0.998075
0.998268
0.996987
0.998767
0.996532
0.998422
1.00013
0.997274
0.998878
0.997501
0.998212
0.998425
0.997229
0.998819
0.99677
0.998395
1.00041
0.997631
0.998901
0.997739
0.99834
0.998574
0.997458
0.998869
0.996951
0.998348
1.00066
0.997986
0.998887
0.997937
0.998455
0.998711
0.997668
0.998914
0.997063
0.998251
1.00081
0.998335
0.998808
0.998071
0.998541
0.998829
0.997852
0.99894
0.997086
0.998066
1.00072
0.998645
0.998631
0.998104
0.998579
0.998912
0.997995
0.998927
0.996983
0.997742
1.00014
0.998798
0.99828
0.997965
0.998519
0.998935
0.998084
0.998855
0.996704
0.997174
0.998628
0.998504
0.997608
0.997516
0.998258
0.998835
0.998092
0.998705
0.996169
0.996196
0.995447
0.997137
0.996268
0.9965
0.997598
0.998496
0.99798
0.998486
0.9953
0.994424
0.989407
0.993589
0.993554
0.994415
0.996142
0.997644
0.997616
0.99823
0.994125
0.99139
0.978855
0.9862
0.988249
0.990406
0.993239
0.99583
0.996815
0.998159
0.993226
0.985563
0.961863
0.972767
0.978417
0.98294
0.987536
0.991792
0.994547
0.997828
0.995061
0.978315
0.935783
0.950136
0.961019
0.969645
0.977088
0.983661
0.989753
0.996143
1.00642
0.968906
0.89643
0.913722
0.931105
0.945059
0.955716
0.963761
0.973778
0.979789
1.0354
1.01217
0.999819
1.00301
0.998896
0.999618
0.999577
0.999575
0.999611
0.998892
1.00306
0.999752
0.995571
0.996399
0.995985
0.997885
0.997892
0.997885
0.997858
0.995966
0.996493
0.995494
0.997459
0.992984
0.996529
0.99756
0.997384
0.997373
0.997534
0.996551
0.993088
0.997328
1.00092
0.993464
0.999457
0.998806
0.998463
0.998453
0.998784
0.999488
0.993524
1.00077
1.00246
0.994336
1.00167
0.999848
0.999745
0.999735
0.999828
1.00168
0.994349
1.00233
1.00258
0.994638
1.00229
0.99994
1.00036
1.00036
0.999923
1.00231
0.994619
1.00244
1.00239
0.994868
1.00218
0.999569
1.00048
1.00048
0.999543
1.00219
0.99484
1.00221
1.00221
0.995321
1.00199
0.999243
1.00047
1.00049
0.9992
1.00199
0.995266
1.00201
1.00199
0.995857
1.00183
0.999052
1.00047
1.0005
0.998992
1.00181
0.995763
1.00179
1.00174
0.996327
1.00163
0.998928
1.00043
1.00047
0.998846
1.00159
0.996205
1.0015
1.00149
0.996721
1.0014
0.998831
1.00034
1.0004
0.998726
1.00135
0.996573
1.00119
1.00128
0.997054
1.00116
0.998768
1.00023
1.0003
0.998636
1.0011
0.996892
1.0009
1.00117
0.997329
1.00095
0.998747
1.00011
1.00021
0.99859
1.00088
0.997175
1.00066
1.00111
0.997572
1.00077
0.998756
1
1.00012
0.998578
1.00067
0.997417
1.00046
1.00112
0.997786
1.00059
0.998782
0.999905
1.00004
0.998591
1.00049
0.997615
1.00027
1.00118
0.997985
1.00044
0.998821
0.99982
0.999967
0.998618
1.00034
0.997773
1.00012
1.00129
0.99818
1.0003
0.99887
0.999749
0.999913
0.998658
1.0002
0.997902
0.999967
1.00144
0.998366
1.00017
0.99892
0.999688
0.99987
0.998706
1.00009
0.997999
0.999813
1.00161
0.998561
1.00004
0.998962
0.999633
0.999839
0.998757
1
0.998057
0.999641
1.00173
0.998765
0.999882
0.99898
0.999579
0.999813
0.998804
0.999925
0.998063
0.999432
1.00174
0.998976
0.999663
0.99895
0.999509
0.999783
0.998838
0.999842
0.997995
0.999148
1.00145
0.999151
0.999333
0.998822
0.99939
0.999725
0.998841
0.999726
0.997811
0.998731
1.0006
0.999138
0.998805
0.998506
0.999158
0.999594
0.998785
0.999546
0.99745
0.998068
0.998664
0.998582
0.997883
0.997819
0.998664
0.999291
0.998613
0.999253
0.99681
0.996967
0.994781
0.996736
0.996122
0.996402
0.997612
0.998615
0.998219
0.9988
0.995764
0.995
0.987448
0.992207
0.992618
0.993564
0.995432
0.997145
0.997348
0.998119
0.994246
0.991632
0.974632
0.982943
0.98583
0.988146
0.991205
0.994202
0.995624
0.997255
0.992684
0.98513
0.954761
0.96687
0.973715
0.978431
0.983369
0.988313
0.991832
0.995595
0.993362
0.97691
0.924578
0.940309
0.952664
0.961876
0.970055
0.977736
0.984976
0.992031
1.00287
0.965452
0.88064
0.898669
0.917297
0.932882
0.945659
0.955924
0.967702
0.974706
1.03033
1.00849
1.0036
1.00678
1.00306
1.00396
1.00392
1.00392
1.00396
1.00306
1.00684
1.00355
0.996318
0.996946
0.996476
0.99835
0.99831
0.998303
0.998332
0.996472
0.99707
0.996278
0.994239
0.989818
0.993041
0.993916
0.993711
0.993703
0.9939
0.993062
0.989941
0.994165
0.99561
0.987859
0.99348
0.992835
0.992484
0.992477
0.992815
0.993496
0.987912
0.995507
0.996332
0.987419
0.994325
0.992664
0.992495
0.992484
0.99264
0.99433
0.987416
0.996197
0.996276
0.987475
0.994607
0.992421
0.992675
0.992664
0.99241
0.994608
0.987419
0.996113
0.996341
0.988129
0.994827
0.992359
0.99303
0.993033
0.992356
0.994822
0.988039
0.996147
0.996656
0.989271
0.99528
0.992657
0.99362
0.993635
0.992635
0.995263
0.989154
0.996425
0.997018
0.990527
0.995823
0.993166
0.994307
0.994333
0.993122
0.995793
0.990388
0.996743
0.997323
0.991671
0.996312
0.993723
0.994954
0.994988
0.993656
0.99626
0.991501
0.996995
0.997585
0.992681
0.996718
0.994265
0.995518
0.995564
0.994178
0.996645
0.992464
0.997188
0.997865
0.993557
0.997057
0.994783
0.996002
0.996067
0.994671
0.996975
0.993303
0.997351
0.998183
0.994296
0.997356
0.995277
0.996421
0.996506
0.995139
0.997276
0.994036
0.997486
0.998494
0.994941
0.997633
0.995745
0.996786
0.996892
0.995578
0.997532
0.994669
0.997599
0.998816
0.99551
0.997875
0.996178
0.997107
0.997232
0.995983
0.997747
0.99519
0.997723
0.999148
0.996022
0.99809
0.996572
0.997388
0.997533
0.996356
0.997945
0.995604
0.997857
0.99948
0.996497
0.998279
0.996932
0.997636
0.9978
0.996697
0.99812
0.995945
0.997954
0.99982
0.996938
0.998432
0.99725
0.997852
0.998034
0.997003
0.998272
0.996221
0.997997
1.00015
0.997352
0.99853
0.997517
0.998033
0.998237
0.997272
0.998397
0.996425
0.997981
1.00043
0.997739
0.998553
0.997724
0.998176
0.998406
0.997501
0.998489
0.996545
0.99789
1.00056
0.998112
0.998479
0.997849
0.998271
0.998534
0.997684
0.998535
0.996561
0.99769
1.00036
0.998449
0.99828
0.997849
0.998285
0.998599
0.997806
0.998516
0.996435
0.997322
0.999575
0.99861
0.997875
0.997633
0.998153
0.998554
0.997835
0.998397
0.996103
0.996675
0.997735
0.99824
0.997084
0.997012
0.997711
0.998288
0.997703
0.998126
0.995465
0.995561
0.99375
0.996446
0.995402
0.995551
0.996594
0.99756
0.997286
0.997646
0.994395
0.993554
0.985269
0.991209
0.991692
0.992402
0.994088
0.995837
0.996248
0.996843
0.992814
0.990113
0.969327
0.979415
0.983652
0.985936
0.988924
0.99217
0.994028
0.995628
0.991109
0.983476
0.9455
0.960393
0.969383
0.974132
0.979056
0.984459
0.98879
0.992839
0.991227
0.97506
0.907067
0.927301
0.942729
0.9525
0.961239
0.969847
0.978507
0.986507
0.999173
0.962965
0.853955
0.873801
0.894005
0.911394
0.926538
0.939185
0.953636
0.962792
1.02146
1.00561
0.999563
1.00354
0.999752
1.00048
1.00049
1.00049
1.00047
0.999751
1.00356
0.999502
0.994941
0.996229
0.995482
0.996924
0.996953
0.996949
0.996911
0.995479
0.996282
0.994863
0.999324
0.994121
0.997298
0.99815
0.998051
0.998044
0.998137
0.99732
0.994179
0.999164
1.0038
0.995502
1.00075
1.00041
1.00017
1.00017
1.00041
1.00078
0.99554
1.00362
1.00493
0.996245
1.00232
1.00113
1.00101
1.00102
1.00113
1.00236
0.996251
1.00477
1.00438
0.99621
1.00248
1.00084
1.00105
1.00106
1.00081
1.00249
0.996185
1.00424
1.00369
0.996285
1.00233
1.0004
1.00092
1.00092
1.00034
1.00231
0.996246
1.00355
1.00313
0.996594
1.00217
1.00003
1.00079
1.00079
0.999977
1.00211
0.996553
1.00296
1.00259
0.996935
1.00196
0.999713
1.00062
1.00063
0.999662
1.00187
0.996901
1.00238
1.00208
0.997196
1.00168
0.99942
1.00042
1.00045
0.999369
1.00157
0.997187
1.00181
1.00165
0.997394
1.0014
0.999184
1.00022
1.00027
0.999124
1.00127
0.997414
1.00132
1.00134
0.997593
1.00115
0.999036
1.00007
1.00012
0.998962
1.00101
0.997598
1.00095
1.00116
0.997805
1.00095
0.99896
0.999955
1.00002
0.99887
1.00079
0.997746
1.00067
1.00107
0.997991
1.0008
0.998939
0.999882
0.99995
0.998832
1.00063
0.997882
1.00045
1.00107
0.998168
1.00068
0.998961
0.999837
0.999915
0.998834
1.00052
0.998015
1.00027
1.00115
0.998344
1.0006
0.999013
0.999813
0.999902
0.998863
1.00042
0.998134
1.00013
1.0013
0.998522
1.00054
0.999085
0.999807
0.999912
0.998915
1.00036
0.998235
1.00001
1.00153
0.998735
1.00048
0.999173
0.999823
0.999947
0.998991
1.00033
0.99832
0.999911
1.00182
0.999011
1.00041
0.999272
0.99986
1.00001
0.999094
1.00033
0.998392
0.999823
1.0021
0.999382
1.00031
0.999373
0.999917
1.0001
0.99922
1.00035
0.998446
0.999729
1.00227
0.999836
1.00015
0.999444
0.999986
1.00022
0.999372
1.0004
0.99847
0.999605
1.0021
1.00029
0.999886
0.999434
1.00004
1.00035
0.999544
1.00045
0.998446
0.999404
1.00116
1.00053
0.999407
0.999224
0.999976
1.00045
0.999719
1.00051
0.998332
0.999032
0.998717
0.999971
0.998472
0.998566
0.999585
1.00036
0.999828
1.00052
0.998059
0.998325
0.993488
0.997264
0.996396
0.996889
0.998378
0.999758
0.999705
1.00045
0.997542
0.996888
0.982149
0.989584
0.991619
0.993096
0.995431
0.997931
0.998905
1.00012
0.996723
0.99418
0.961603
0.974091
0.981557
0.985112
0.989063
0.99358
0.996645
0.999381
0.996176
0.988612
0.9385
0.956706
0.966289
0.971232
0.977175
0.984304
0.990595
0.996511
0.997693
0.981628
0.902191
0.923091
0.937698
0.945937
0.955728
0.966921
0.978921
0.98999
1.00896
0.973832
0.84413
0.858021
0.878943
0.897789
0.914772
0.929758
0.94766
0.959625
1.03079
1.02849
0.811415
0.82232
0.841412
0.862667
0.882456
0.898774
0.919983
0.927743
1.00484
1.02862
0.788199
0.796883
0.815213
0.836748
0.857267
0.874451
0.897112
0.906278
0.978569
1.04617
0.763423
0.770699
0.788405
0.809076
0.828897
0.845576
0.868083
0.881071
0.943761
1.04838
0.737584
0.743611
0.760941
0.780043
0.798061
0.813243
0.833852
0.850015
0.902026
1.02025
0.711018
0.715745
0.732736
0.749907
0.765675
0.77869
0.796079
0.812948
0.853847
0.97006
0.683984
0.687233
0.703688
0.718459
0.731416
0.741733
0.755458
0.771584
0.801665
0.907266
0.656658
0.658229
0.673665
0.685639
0.695445
0.702589
0.712196
0.726417
0.747803
0.83778
0.62913
0.628864
0.642673
0.651559
0.658045
0.661811
0.667232
0.678293
0.692916
0.765265
0.60145
0.599352
0.610945
0.61656
0.619432
0.619486
0.620411
0.627508
0.636407
0.692379
0.573762
0.56995
0.578794
0.580758
0.579165
0.574781
0.570957
0.573795
0.577683
0.619211
0.546174
0.540682
0.546137
0.543656
0.536907
0.527837
0.519698
0.518271
0.517904
0.546971
0.518569
0.511311
0.512535
0.504954
0.493188
0.479876
0.468058
0.462675
0.458756
0.477626
0.490689
0.48154
0.477965
0.465313
0.4491
0.432183
0.417328
0.408591
0.40182
0.412753
0.462297
0.451265
0.442902
0.425678
0.405647
0.385795
0.368615
0.357293
0.348374
0.353471
0.43333
0.420657
0.407878
0.38669
0.363507
0.341448
0.322657
0.309515
0.299057
0.300027
0.404024
0.389946
0.373225
0.348746
0.323123
0.299572
0.279806
0.26548
0.253922
0.251953
0.374573
0.359273
0.339167
0.312107
0.284763
0.260365
0.240132
0.225063
0.212662
0.208444
0.345022
0.328773
0.305894
0.276965
0.2486
0.223904
0.20357
0.188045
0.175005
0.169057
0.315465
0.2986
0.273591
0.243491
0.21478
0.190239
0.170122
0.154385
0.14094
0.133395
0.286097
0.268952
0.242467
0.211883
0.183435
0.159483
0.139781
0.123866
0.110242
0.101361
0.257195
0.240059
0.212757
0.182342
0.154706
0.131587
0.112395
0.0965936
0.083257
0.0735856
0.229083
0.212184
0.184705
0.155039
0.128651
0.106527
0.0881918
0.0730355
0.0605542
0.0507428
0.202101
0.185599
0.158535
0.130135
0.105263
0.0844752
0.0674483
0.0534978
0.0423561
0.0332413
0.176566
0.160578
0.134435
0.107761
0.0846395
0.0655602
0.0502631
0.0379928
0.028525
0.0207675
0.152742
0.137364
0.112571
0.0879073
0.0668184
0.0497762
0.036539
0.0262161
0.0185432
0.0124329
0.130831
0.116146
0.0930573
0.0705743
0.0517584
0.036998
0.0259706
0.0176236
0.0116757
0.00718338
0.110966
0.0970403
0.0759309
0.0557448
0.0393569
0.0269744
0.0180967
0.011576
0.00715443
0.0040426
0.0932031
0.0801084
0.0611012
0.0433196
0.0294178
0.0193375
0.0123963
0.0074568
0.00429105
0.00223094
0.0775214
0.0653908
0.048476
0.0331366
0.0216431
0.0136584
0.00836816
0.00473408
0.0025355
0.00120973
0.0638506
0.0528659
0.0379375
0.0249777
0.0157114
0.00954425
0.00559975
0.00299569
0.00149726
0.000652853
0.824126
0.840113
0.860863
0.880979
0.89937
0.914215
0.932421
0.937938
1.00581
1.00509
0.802722
0.816657
0.838135
0.859303
0.878649
0.89432
0.914403
0.920624
0.98621
1.01729
0.778828
0.791134
0.813574
0.835555
0.855239
0.87083
0.891359
0.900683
0.959702
1.0239
0.753173
0.763498
0.786724
0.8092
0.829002
0.844234
0.863687
0.875994
0.926599
1.01027
0.726266
0.734056
0.757769
0.77998
0.79914
0.813692