/*--------------------------------*- C++ -*----------------------------------*\
| =========                 |                                                 |
| \\      /  F ield         | OpenFOAM: The Open Source CFD Toolbox           |
|  \\    /   O peration     | Version:  4.1                                   |
|   \\  /    A nd           | Web:      www.OpenFOAM.org                      |
|    \\/     M anipulation  |                                                 |
\*---------------------------------------------------------------------------*/
FoamFile
{
    version     2.0;
    format      ascii;
    class       volScalarField;
    location    "200";
    object      epsilon;
}
// * * * * * * * * * * * * * * * * * * * * * * * * * * * * * * * * * * * * * //

dimensions      [0 2 -3 0 0 0 0];

internalField   nonuniform List<scalar> 
12000
(
0.31966
0.311461
0.310292
0.309986
0.309911
0.309912
0.309988
0.31028
0.311354
0.319548
0.0652379
0.0639074
0.0629295
0.0624834
0.0623487
0.0623493
0.0624862
0.0629432
0.0639273
0.0652777
0.01765
0.0177602
0.0174037
0.0171688
0.0170831
0.0170832
0.0171687
0.0173999
0.0177601
0.0176683
0.00615394
0.00636571
0.00623373
0.00612754
0.00608179
0.00608209
0.00612755
0.00623263
0.00637302
0.00616178
0.00263493
0.00277649
0.00272163
0.00266954
0.00264414
0.00264423
0.00266993
0.00271973
0.00277718
0.00263826
0.00132443
0.00141111
0.00139146
0.00136569
0.00135095
0.0013515
0.00136645
0.00139306
0.0014129
0.00132665
0.000750256
0.000801022
0.000798122
0.000782503
0.00077274
0.000772689
0.000783609
0.000797194
0.000799283
0.000752561
0.000465871
0.000499279
0.000499603
0.000491677
0.000485973
0.00048601
0.000491499
0.000502326
0.00049874
0.000468369
0.000310264
0.000334451
0.000338608
0.000334311
0.000329941
0.000329372
0.00033466
0.000340859
0.000334913
0.000313037
0.000218409
0.000237216
0.00024302
0.000239838
0.000236851
0.000236256
0.000239714
0.000244388
0.000237907
0.00022123
0.000160599
0.000175169
0.000181527
0.000179088
0.000177155
0.000176651
0.000179693
0.000182908
0.000176058
0.000163505
0.000122174
0.000133929
0.000140343
0.000138843
0.00013714
0.000137034
0.000139351
0.000141651
0.000135655
0.000125394
9.56964e-05
0.000105705
0.000111718
0.000110548
0.000109466
0.000109478
0.000111144
0.00011292
0.000107456
9.91683e-05
7.68515e-05
8.58074e-05
9.09998e-05
9.02173e-05
8.92287e-05
8.95416e-05
9.09556e-05
9.21334e-05
8.75405e-05
8.05285e-05
6.30126e-05
7.12436e-05
7.56999e-05
7.50937e-05
7.4411e-05
7.48063e-05
7.59799e-05
7.66843e-05
7.29094e-05
6.6915e-05
5.25415e-05
6.02292e-05
6.41275e-05
6.36951e-05
6.32342e-05
6.36134e-05
6.46415e-05
6.5122e-05
6.19378e-05
5.67059e-05
4.43828e-05
5.16399e-05
5.50824e-05
5.48823e-05
5.45947e-05
5.49334e-05
5.58565e-05
5.64111e-05
5.35536e-05
4.89281e-05
3.7842e-05
4.47569e-05
4.79731e-05
4.7937e-05
4.78161e-05
4.81749e-05
4.89809e-05
4.96279e-05
4.6983e-05
4.28559e-05
3.245e-05
3.91224e-05
4.22499e-05
4.23391e-05
4.23254e-05
4.26797e-05
4.34309e-05
4.42536e-05
4.18408e-05
3.81227e-05
2.78742e-05
3.43896e-05
3.75174e-05
3.77446e-05
3.78656e-05
3.82984e-05
3.8994e-05
3.98809e-05
3.76912e-05
3.43184e-05
2.38722e-05
3.03133e-05
3.35239e-05
3.39109e-05
3.41054e-05
3.4562e-05
3.529e-05
3.63184e-05
3.44475e-05
3.13651e-05
2.02449e-05
2.66792e-05
3.00576e-05
3.06643e-05
3.1002e-05
3.15956e-05
3.23005e-05
3.335e-05
3.17716e-05
2.89429e-05
1.68315e-05
2.32611e-05
2.69904e-05
2.78486e-05
2.825e-05
2.88871e-05
2.97211e-05
3.09459e-05
2.97604e-05
2.71623e-05
1.34744e-05
1.9969e-05
2.41336e-05
2.53734e-05
2.59871e-05
2.68101e-05
2.76405e-05
2.88965e-05
2.80544e-05
2.56977e-05
1.00484e-05
1.64577e-05
2.1347e-05
2.30479e-05
2.37722e-05
2.46714e-05
2.57564e-05
2.73059e-05
2.69014e-05
2.48329e-05
6.36139e-06
1.27675e-05
1.8394e-05
2.08578e-05
2.19966e-05
2.30976e-05
2.41464e-05
2.58621e-05
2.58395e-05
2.41919e-05
2.71602e-06
8.47087e-06
1.50496e-05
1.82587e-05
1.97879e-05
2.11596e-05
2.26548e-05
2.48225e-05
2.53001e-05
2.4119e-05
1.34584e-06
4.66821e-06
1.09259e-05
1.54412e-05
1.79261e-05
1.9557e-05
2.09322e-05
2.35571e-05
2.48377e-05
2.46691e-05
2.01674e-06
3.56688e-06
5.91421e-06
9.64304e-06
1.41046e-05
1.72944e-05
1.94007e-05
2.23224e-05
2.48007e-05
2.49616e-05
4.26243e-06
6.20393e-06
6.72432e-06
6.86065e-06
8.49397e-06
1.12184e-05
1.54056e-05
2.01328e-05
2.37651e-05
2.74858e-05
0.311459
0.731407
0.752761
0.75256
0.752412
0.752412
0.752557
0.752759
0.731842
0.311584
0.0639039
0.0827036
0.0727831
0.0723049
0.0722129
0.0722157
0.0723205
0.0728349
0.0828518
0.0641908
0.0177572
0.0297428
0.0284508
0.0282311
0.0281705
0.028155
0.0281841
0.0283449
0.0293832
0.017899
0.00636343
0.012892
0.0124304
0.0122819
0.0122571
0.0122231
0.012213
0.0123033
0.012998
0.00644855
0.00277446
0.00567793
0.00553897
0.00547135
0.00544472
0.00536976
0.00540799
0.00526829
0.00553193
0.00281624
0.00140949
0.0025493
0.00234878
0.00229253
0.00228666
0.00237002
0.00226521
0.00235925
0.00333558
0.001433
0.000799355
0.00119482
0.00136153
0.00136966
0.00135014
0.00110131
0.00133909
0.000984099
0.00185579
0.000810987
0.00049799
0.000560094
0.000652733
0.000693952
0.000684898
0.000459864
0.000695814
0.000634774
0.00102073
0.000506147
0.000333141
0.000320571
0.000357416
0.00038054
0.000362651
0.000340797
0.000365916
0.000342142
0.000457364
0.000339699
0.000235968
0.00018578
9.57097e-05
0.000167281
0.000153722
0.000195447
0.000142632
0.000189707
0.0002234
0.000240849
0.00017391
0.000102679
2.81504e-05
8.12029e-05
7.00934e-05
0.000111948
6.29918e-05
8.78543e-05
0.000121776
0.0001779
0.000132699
6.38043e-05
1.1125e-05
4.01879e-05
3.59091e-05
5.38772e-05
2.98125e-05
4.23225e-05
7.52069e-05
0.000136868
0.00010448
4.41033e-05
5.45748e-06
2.35791e-05
2.24885e-05
2.80289e-05
1.87428e-05
3.0647e-05
4.73074e-05
0.000108405
8.45018e-05
3.34834e-05
7.26199e-06
1.60738e-05
1.62225e-05
1.5261e-05
1.3705e-05
2.20468e-05
3.3131e-05
8.83621e-05
6.98301e-05
2.72572e-05
4.81916e-06
1.22629e-05
1.29894e-05
1.04167e-05
1.07684e-05
1.59495e-05
2.47527e-05
7.37295e-05
5.86907e-05
2.31742e-05
4.65988e-06
1.00109e-05
9.93573e-06
7.55356e-06
8.78352e-06
1.08438e-05
1.96463e-05
6.27884e-05
4.99784e-05
2.03515e-05
5.61591e-06
8.46003e-06
7.79857e-06
6.29369e-06
7.40753e-06
8.14519e-06
1.65294e-05
5.43137e-05
4.29521e-05
1.8208e-05
5.28856e-06
7.12452e-06
6.4947e-06
5.88064e-06
6.43513e-06
6.35333e-06
1.42044e-05
4.76759e-05
3.71807e-05
1.66849e-05
5.06491e-06
5.99226e-06
5.57672e-06
5.46801e-06
5.71051e-06
5.35287e-06
1.24451e-05
4.23086e-05
3.22938e-05
1.56829e-05
4.85848e-06
5.20846e-06
4.94764e-06
4.96455e-06
5.19529e-06
4.84042e-06
1.10301e-05
3.80305e-05
2.81092e-05
1.50007e-05
4.64242e-06
4.64592e-06
4.49309e-06
4.49105e-06
4.76186e-06
4.41312e-06
9.88184e-06
3.44082e-05
2.43803e-05
1.49411e-05
4.8201e-06
4.21897e-06
4.15509e-06
4.13261e-06
4.45493e-06
4.10727e-06
8.87154e-06
3.15705e-05
2.09982e-05
1.50201e-05
4.96586e-06
4.13033e-06
4.07396e-06
3.95859e-06
4.23139e-06
3.88716e-06
8.03683e-06
2.89579e-05
1.78159e-05
1.51546e-05
5.26011e-06
4.05774e-06
4.05029e-06
3.8757e-06
4.18952e-06
3.9363e-06
7.30331e-06
2.70484e-05
1.47071e-05
1.55175e-05
6.54202e-06
4.26259e-06
4.11405e-06
3.97226e-06
4.19814e-06
4.02868e-06
6.75058e-06
2.50055e-05
1.15473e-05
1.57704e-05
8.14826e-06
4.56631e-06
4.21349e-06
4.02889e-06
4.2763e-06
4.14414e-06
6.30991e-06
2.36195e-05
8.34409e-06
1.67385e-05
1.04156e-05
5.41667e-06
4.85534e-06
4.48312e-06
4.65442e-06
4.46008e-06
6.27583e-06
2.18526e-05
5.18604e-06
1.82417e-05
1.32697e-05
6.90638e-06
5.19082e-06
4.86365e-06
4.9997e-06
5.11254e-06
6.2374e-06
2.08407e-05
3.51878e-06
2.13181e-05
1.80809e-05
9.83417e-06
6.65317e-06
5.77398e-06
5.93798e-06
5.91324e-06
8.71825e-06
1.84674e-05
3.72064e-06
2.41164e-05
2.48351e-05
1.65336e-05
9.65891e-06
7.3477e-06
7.1762e-06
7.67032e-06
1.19373e-05
1.87793e-05
0.31029
0.752746
0.771319
0.770389
0.770747
0.770771
0.770481
0.771306
0.753137
0.310564
0.0629268
0.0728278
0.0593748
0.0581849
0.0580793
0.0586433
0.0567222
0.0597314
0.0729364
0.0632787
0.0174002
0.02846
0.0222592
0.0197598
0.0203345
0.0213735
0.0189615
0.0223579
0.0284771
0.0175386
0.00623216
0.0124696
0.000694791
0.000548333
0.000552575
0.000374623
0.000620773
0.000464268
0.0124692
0.00631229
0.00271903
0.0054867
9.14436e-06
5.90185e-05
2.62959e-06
1.3504e-06
8.51863e-07
6.5502e-06
0.00556856
0.00275728
0.00139029
0.00248617
5.60892e-07
9.99884e-06
3.43076e-07
2.44301e-07
3.14063e-07
1.39836e-06
0.00233433
0.00140878
0.000794728
0.00104406
2.54446e-07
1.33274e-05
4.391e-07
3.43917e-07
1.05007e-05
2.63856e-06
0.00144505
0.00080692
0.000501228
0.000690059
1.81956e-07
2.37326e-06
6.83733e-07
1.63417e-07
8.32752e-06
2.25856e-06
0.000720455
0.000507246
0.000338038
0.000365676
3.88267e-07
5.58259e-07
9.74274e-08
1.05852e-07
7.35332e-06
1.30942e-06
0.000363726
0.00034423
0.000242313
0.000200073
4.6363e-07
3.00734e-07
6.95469e-08
4.36399e-08
1.43264e-06
1.23618e-06
9.56006e-05
0.000245891
0.000180242
8.54237e-05
4.45328e-07
2.11704e-07
3.96437e-08
5.70702e-08
5.26012e-07
5.78847e-07
2.28114e-05
0.000183528
0.000139523
4.05957e-05
5.75833e-07
1.44949e-07
3.47734e-08
2.63731e-08
1.99236e-07
9.60537e-07
6.50874e-06
0.000141815
0.000110584
2.23553e-05
5.28435e-07
1.10889e-07
2.54904e-08
2.11892e-08
1.62929e-07
7.29656e-07
3.81313e-06
0.000112654
8.95632e-05
1.50476e-05
5.0025e-07
8.8533e-08
5.22062e-08
1.33921e-08
1.36174e-07
4.15055e-07
1.50263e-06
9.17742e-05
7.40479e-05
1.15585e-05
4.63919e-07
5.10415e-08
6.21163e-08
2.27079e-08
1.43561e-07
4.40924e-07
2.26964e-06
7.64811e-05
6.23238e-05
1.02474e-05
4.05324e-07
8.58097e-08
7.68164e-08
3.52136e-08
1.39497e-07
3.66584e-07
3.10613e-06
6.50255e-05
5.32215e-05
9.15121e-06
4.02457e-07
6.77653e-08
4.53977e-08
2.06321e-08
1.60218e-07
2.48929e-07
4.51171e-06
5.61136e-05
4.5947e-05
8.5802e-06
3.76522e-07
9.5247e-08
1.03144e-07
5.39777e-08
1.53797e-07
2.50739e-07
5.10323e-06
4.92588e-05
3.99773e-05
8.40005e-06
4.08992e-07
1.56271e-07
6.699e-08
5.76205e-08
1.49213e-07
1.88333e-07
4.87908e-06
4.35278e-05
3.49818e-05
8.4781e-06
5.00716e-07
1.53212e-07
8.74101e-08
5.85502e-08
1.39953e-07
1.91419e-07
4.38673e-06
3.90916e-05
3.06181e-05
8.47941e-06
5.97694e-07
1.63665e-07
7.24515e-08
5.88392e-08
1.38358e-07
1.54465e-07
3.84971e-06
3.50504e-05
2.68234e-05
9.2884e-06
7.64431e-07
1.8087e-07
8.41495e-08
5.45357e-08
1.37035e-07
1.64214e-07
3.32156e-06
3.20248e-05
2.33698e-05
9.75922e-06
9.57662e-07
2.10557e-07
8.61378e-08
7.89839e-08
1.33343e-07
1.34692e-07
2.84133e-06
2.88917e-05
2.01374e-05
9.87434e-06
1.27798e-06
2.34484e-07
1.11304e-07
7.94469e-08
1.45838e-07
1.53998e-07
2.38542e-06
2.67168e-05
1.70471e-05
1.10509e-05
1.60511e-06
3.28087e-07
1.29622e-07
9.36196e-08
1.44234e-07
1.42958e-07
1.99621e-06
2.40152e-05
1.41385e-05
1.14516e-05
2.23972e-06
4.25806e-07
1.65986e-07
1.17368e-07
1.52561e-07
1.45795e-07
1.62816e-06
2.22962e-05
1.13423e-05
1.18197e-05
3.32405e-06
6.94534e-07
2.59894e-07
1.67459e-07
1.79432e-07
1.80305e-07
1.35413e-06
1.96433e-05
8.66108e-06
1.27808e-05
5.47256e-06
1.10494e-06
3.63224e-07
2.31531e-07
2.33342e-07
2.17513e-07
1.08256e-06
1.78247e-05
6.25524e-06
1.42792e-05
7.82973e-06
2.13489e-06
7.06596e-07
3.92145e-07
3.26287e-07
3.26179e-07
1.04621e-06
1.46624e-05
4.74042e-06
1.63948e-05
1.19392e-05
4.08851e-06
1.45945e-06
6.23282e-07
4.94974e-07
4.51605e-07
1.30953e-06
1.14617e-05
0.309985
0.752554
0.770401
0.769992
0.769806
0.769902
0.770051
0.77039
0.752941
0.310278
0.0624805
0.0723372
0.0585614
0.0574542
0.0575949
0.0561868
0.0557455
0.0590125
0.0723843
0.0628282
0.0171656
0.0282333
0.0177857
0.0190287
0.0158019
0.0176547
0.0188225
0.0167115
0.0282318
0.0172983
0.00612513
0.0122999
0.004729
3.8262e-05
0.00514345
0.000222161
0.000138938
0.00344933
0.0123019
0.00619873
0.00266727
0.00547079
0.000409993
3.48064e-07
0.00266102
6.48451e-07
3.35217e-06
0.00012085
0.00547902
0.00270183
0.00136365
0.00229424
0.000225334
7.97053e-07
1.39533e-07
7.65635e-09
2.93813e-10
4.64641e-06
0.00229331
0.00138042
0.000781071
0.00137212
2.27645e-05
4.847e-07
3.18713e-11
1.84541e-11
3.15966e-08
1.47588e-05
0.00138878
0.000790705
0.000489069
0.000705857
7.16483e-06
1.83733e-07
1.0675e-11
1.59896e-11
1.01373e-08
1.21206e-06
0.000714059
0.000496044
0.000332329
0.000384001
1.14101e-06
4.17736e-08
9.95592e-12
2.53834e-11
3.24798e-08
5.94222e-07
0.000360005
0.000338084
0.000237878
0.000154305
4.15976e-07
5.43254e-10
5.48011e-12
3.57402e-12
8.46529e-09
3.2646e-07
0.000131424
0.000242055
0.000177491
5.43417e-05
2.7708e-07
1.10992e-09
2.57899e-12
4.22703e-11
1.84743e-09
1.27985e-07
4.71724e-05
0.000181594
0.00013723
2.85406e-05
1.77192e-07
1.74601e-09
2.19678e-12
1.29315e-11
4.70679e-10
1.13736e-07
2.21048e-05
0.000140787
0.000108981
1.85946e-05
2.06328e-07
2.53313e-09
3.3116e-12
2.25219e-11
4.29878e-10
1.143e-07
1.51249e-05
0.000112492
8.8444e-05
1.48888e-05
2.12439e-07
1.9705e-09
5.18611e-11
2.31484e-11
4.86097e-10
9.79243e-08
1.06188e-05
9.21091e-05
7.31884e-05
1.25459e-05
2.58115e-07
2.08782e-09
1.86921e-10
3.4782e-11
4.31002e-10
9.07403e-08
8.68759e-06
7.69784e-05
6.16208e-05
1.09752e-05
3.91716e-07
3.97176e-09
1.85163e-10
6.29395e-11
4.99791e-10
8.21808e-08
7.57705e-06
6.56403e-05
5.25514e-05
9.5217e-06
5.16893e-07
9.87435e-09
2.86234e-10
7.12011e-11
4.90429e-10
7.60582e-08
6.47772e-06
5.6707e-05
4.53195e-05
9.51763e-06
4.77163e-07
9.91957e-09
5.60604e-10
1.37617e-10
7.02855e-10
6.99881e-08
5.54227e-06
4.98517e-05
3.93745e-05
9.24431e-06
5.47442e-07
1.75433e-08
2.38452e-10
2.88101e-10
5.32506e-10
6.46078e-08
4.72297e-06
4.40515e-05
3.44035e-05
9.12174e-06
6.4054e-07
2.68033e-08
1.63705e-09
2.39879e-10
9.12924e-10
5.69282e-08
4.07062e-06
3.96265e-05
3.00686e-05
8.70969e-06
7.58443e-07
4.18641e-08
9.33606e-10
1.74219e-10
1.11314e-09
4.82314e-08
3.46901e-06
3.54947e-05
2.63244e-05
9.35885e-06
8.35012e-07
5.24402e-08
4.72409e-09
7.69489e-10
1.19961e-09
3.95434e-08
2.97841e-06
3.2496e-05
2.29225e-05
9.69284e-06
1.01052e-06
7.74481e-08
7.76149e-09
7.59075e-10
1.42105e-09
3.0772e-08
2.5032e-06
2.9261e-05
1.97716e-05
9.58544e-06
1.2486e-06
1.16086e-07
8.7197e-09
1.9562e-09
1.71695e-09
2.39817e-08
2.11301e-06
2.71202e-05
1.67727e-05
9.81771e-06
1.50473e-06
1.71547e-07
2.32518e-08
1.92748e-09
2.20177e-09
1.86121e-08
1.7188e-06
2.42896e-05
1.39842e-05
1.05529e-05
1.93279e-06
2.53663e-07
2.9359e-08
5.23434e-09
2.70852e-09
1.45004e-08
1.41271e-06
2.25765e-05
1.13421e-05
1.09903e-05
2.85497e-06
4.11649e-07
6.23791e-08
7.18938e-09
2.94309e-09
1.09209e-08
1.07561e-06
1.97467e-05
8.86126e-06
1.15551e-05
4.44358e-06
7.3188e-07
1.11138e-07
2.35757e-08
7.36117e-09
1.16045e-08
8.63524e-07
1.79192e-05
6.60716e-06
1.24828e-05
6.26899e-06
1.36544e-06
2.4818e-07
4.23051e-08
1.17649e-08
1.16775e-08
5.81338e-07
1.40815e-05
4.66893e-06
1.34639e-05
8.5473e-06
2.36254e-06
5.48219e-07
1.40468e-07
3.49369e-08
2.26479e-08
5.73578e-07
1.19174e-05
0.30991
0.752409
0.77029
0.769855
0.769721
0.769703
0.769862
0.770294
0.752803
0.310204
0.0623454
0.0722674
0.0582529
0.0577797
0.0562438
0.0567567
0.0561477
0.0580601
0.0722772
0.0626915
0.0170793
0.0281884
0.0196837
0.0153743
0.0180024
0.0184376
0.0195978
0.0196857
0.0281733
0.0172104
0.00607917
0.0122709
4.95732e-05
0.00395604
0.00019168
7.22532e-05
0.00025383
0.000190331
0.0122723
0.00615076
0.00264151
0.00544662
3.05308e-05
0.00200686
1.0684e-06
1.33467e-06
1.29948e-05
4.2047e-07
0.00544808
0.00267547
0.00134913
0.00229106
0.000106703
7.49545e-08
2.38325e-09
3.17496e-08
4.25839e-08
1.58498e-07
0.0022917
0.00136559
0.000769965
0.00134444
1.94767e-05
6.33199e-10
3.83449e-12
1.24389e-09
1.03901e-08
1.23901e-06
0.00135159
0.000780093
0.000485429
0.000676553
5.74567e-06
2.30682e-09
1.45172e-12
1.57842e-12
5.6501e-09
1.34914e-06
0.000694693
0.00049165
0.000328163
0.000372535
1.29364e-06
3.44895e-10
3.11231e-14
1.45388e-13
3.14461e-09
5.23378e-07
0.000332786
0.000334229
0.000235101
0.00014988
4.71375e-07
4.00132e-10
1.08462e-13
6.40555e-13
2.63513e-09
4.07817e-07
0.000107168
0.000239366
0.000175092
6.12056e-05
2.97684e-07
8.85509e-10
1.10346e-13
6.34311e-13
9.66533e-10
1.91432e-07
3.99031e-05
0.000179288
0.000135302
3.35332e-05
2.48748e-07
4.94374e-10
5.20918e-14
8.47942e-14
3.44267e-10
1.19346e-07
1.5339e-05
0.000139179
0.000107512
2.02234e-05
1.98157e-07
7.98232e-10
8.47536e-14
1.63879e-14
1.436e-10
1.08093e-07
1.00145e-05
0.000111058
8.73515e-05
1.45381e-05
1.37877e-07
1.13464e-09
9.05843e-13
1.14555e-13
1.61643e-10
9.44537e-08
8.47973e-06
9.09004e-05
7.24223e-05
1.17846e-05
1.10142e-07
8.3497e-10
3.3746e-12
1.65258e-13
1.40886e-10
7.6642e-08
7.3994e-06
7.59466e-05
6.10418e-05
9.77715e-06
1.05542e-07
1.44657e-09
1.05034e-11
1.67165e-14
1.3438e-10
6.36919e-08
6.47041e-06
6.47565e-05
5.2102e-05
8.81775e-06
1.41109e-07
2.71927e-09
2.10644e-11
8.16474e-13
1.30194e-10
5.45688e-08
5.62323e-06
5.59175e-05
4.49571e-05
8.31854e-06
2.32357e-07
4.63546e-09
6.22246e-11
4.95463e-13
1.2607e-10
4.73331e-08
4.92101e-06
4.91262e-05
3.90629e-05
8.09101e-06
3.28561e-07
1.11397e-08
2.27521e-10
2.92852e-12
1.07249e-10
4.36231e-08
4.29408e-06
4.33695e-05
3.41246e-05
7.70047e-06
4.27023e-07
1.68711e-08
6.24705e-10
1.0456e-11
1.20238e-10
3.948e-08
3.78833e-06
3.89923e-05
2.98629e-05
8.05703e-06
5.60488e-07
3.01377e-08
1.14793e-09
4.95894e-11
1.22268e-10
3.64093e-08
3.30791e-06
3.49088e-05
2.6145e-05
8.10913e-06
7.28938e-07
4.69092e-08
2.53061e-09
1.17369e-11
1.28787e-10
3.28376e-08
2.91756e-06
3.19869e-05
2.27681e-05
8.33167e-06
9.14598e-07
7.23949e-08
3.01255e-09
3.25554e-10
1.42427e-10
2.98577e-08
2.50692e-06
2.88134e-05
1.96729e-05
8.82492e-06
1.17637e-06
1.1465e-07
1.25571e-08
3.74287e-10
1.33682e-10
2.44611e-08
2.17646e-06
2.67794e-05
1.67148e-05
9.24065e-06
1.43032e-06
1.59768e-07
1.48668e-08
2.2287e-09
3.09612e-10
2.2629e-08
1.79702e-06
2.40255e-05
1.39222e-05
1.03253e-05
1.97677e-06
2.76526e-07
4.43083e-08
4.2281e-09
3.80735e-10
1.81661e-08
1.51357e-06
2.24056e-05
1.1268e-05
1.08794e-05
2.82264e-06
3.98036e-07
5.51703e-08
7.11215e-09
1.33265e-09
1.411e-08
1.15815e-06
1.96749e-05
8.72405e-06
1.14783e-05
4.36574e-06
7.43388e-07
1.37721e-07
2.15521e-08
8.61847e-10
1.02046e-08
9.49323e-07
1.78791e-05
6.40146e-06
1.24145e-05
6.23251e-06
1.29257e-06
2.26442e-07
3.53343e-08
1.09795e-08
8.57486e-09
6.30583e-07
1.41699e-05
4.31834e-06
1.34757e-05
8.46106e-06
2.36682e-06
5.62107e-07
1.31684e-07
2.55071e-08
1.67331e-08
6.71081e-07
1.17186e-05
0.30991
0.752407
0.770397
0.769938
0.769767
0.769693
0.769796
0.770744
0.752796
0.310203
0.0623455
0.0722846
0.0568072
0.055838
0.0557577
0.0565782
0.0579029
0.0580431
0.0722467
0.0626909
0.017079
0.0281743
0.0194737
0.0176548
0.0178613
0.0194967
0.0149654
0.0198545
0.0281425
0.0172094
0.00607894
0.0122483
0.000117049
0.000200772
4.30269e-05
6.81015e-05
0.007225
0.000530342
0.0122698
0.00615028
0.0026414
0.00541348
4.97864e-07
3.8256e-06
4.87654e-07
1.1511e-06
0.000631567
2.34859e-06
0.00537054
0.00267502
0.00134921
0.00228006
2.31941e-07
2.17684e-07
1.19093e-08
1.24568e-10
4.91564e-10
2.72751e-07
0.00242131
0.001366
0.000769976
0.00132263
4.66735e-07
1.1693e-10
1.9177e-11
3.20313e-13
2.06905e-11
2.64208e-07
0.00100907
0.000779421
0.000485505
0.000667896
1.12505e-07
8.67928e-11
9.18981e-14
3.98758e-13
6.427e-12
3.99442e-07
0.000687561
0.000493238
0.000328381
0.000367195
7.4735e-08
3.36547e-10
2.62866e-13
2.77057e-13
8.28851e-12
1.10812e-07
0.000397229
0.00033322
0.000235118
0.000159794
4.80967e-08
1.8421e-10
3.5385e-13
1.26653e-13
6.61395e-12
4.29656e-08
0.000221441
0.000239521
0.000175286
7.96918e-05
4.32701e-08
3.97013e-10
1.04679e-13
1.11293e-13
5.02234e-12
3.50974e-08
0.000101236
0.00017922
0.000135459
4.23219e-05
3.37376e-08
4.22286e-10
1.98881e-14
7.05312e-14
3.73014e-12
6.27712e-08
5.07609e-05
0.000139211
0.000107457
2.54277e-05
3.38863e-08
2.70158e-10
1.2801e-13
5.74042e-14
2.71671e-12
2.36586e-08
2.79238e-05
0.000111185
8.73386e-05
1.6875e-05
5.63987e-08
1.84757e-10
4.67652e-13
2.69151e-14
1.85062e-12
2.95988e-08
1.72205e-05
9.10207e-05
7.23279e-05
1.28293e-05
5.71864e-08
2.79116e-10
1.71221e-12
2.49998e-14
1.30895e-12
3.0194e-08
1.20832e-05
7.60387e-05
6.09396e-05
1.07235e-05
2.58494e-07
3.86713e-10
2.98758e-12
2.05219e-14
7.02961e-13
2.88312e-08
9.37559e-06
6.48548e-05
5.20493e-05
9.02319e-06
2.39535e-07
2.24707e-09
4.94826e-12
9.71996e-15
7.51432e-13
2.61561e-08
7.42922e-06
5.6031e-05
4.49319e-05
8.47417e-06
2.46266e-07
2.28337e-08
5.88297e-11
6.3098e-13
3.77835e-12
2.08637e-08
5.87913e-06
4.92036e-05
3.90501e-05
8.01118e-06
3.41993e-07
1.45633e-08
4.9082e-11
3.2006e-12
1.64276e-09
1.88327e-08
4.71794e-06
4.34335e-05
3.41237e-05
8.03512e-06
3.83469e-07
1.29921e-08
4.10423e-10
4.6234e-12
4.94289e-11
2.73003e-08
3.8736e-06
3.89903e-05
2.98825e-05
8.00506e-06
4.76465e-07
2.93861e-08
1.02826e-09
2.9788e-11
1.73669e-11
1.91285e-08
3.20048e-06
3.48799e-05
2.61603e-05
8.06094e-06
6.20964e-07
3.15569e-08
1.27486e-09
3.03908e-11
2.78107e-11
1.20021e-08
2.69412e-06
3.18695e-05
2.2787e-05
8.36628e-06
8.37069e-07
5.52942e-08
1.74941e-09
1.3305e-10
5.80783e-12
1.40189e-08
2.23251e-06
2.8651e-05
1.97035e-05
8.91642e-06
1.14985e-06
8.76673e-08
6.76183e-09
3.40737e-10
2.40405e-11
1.29299e-08
1.88707e-06
2.65258e-05
1.67762e-05
9.61313e-06
1.5012e-06
1.67896e-07
1.15873e-08
3.39183e-10
3.04741e-11
1.10624e-08
1.52718e-06
2.37295e-05
1.39943e-05
1.06414e-05
2.16902e-06
2.82239e-07
3.52354e-08
3.7676e-09
4.26823e-10
8.64741e-09
1.27871e-06
2.20364e-05
1.13444e-05
1.10977e-05
2.9746e-06
4.64075e-07
5.80071e-08
6.34857e-09
1.2252e-09
5.91834e-09
9.68674e-07
1.93333e-05
8.81291e-06
1.16691e-05
4.55879e-06
7.63316e-07
1.41649e-07
2.50511e-08
3.63759e-09
4.73732e-09
7.97107e-07
1.74212e-05
6.50018e-06
1.25604e-05
6.35938e-06
1.37498e-06
2.4791e-07
4.23319e-08
5.50425e-09
4.63927e-09
5.35528e-07
1.3885e-05
4.42488e-06
1.35652e-05
8.58321e-06
2.40115e-06
5.79889e-07
1.37687e-07
3.76259e-08
1.10219e-08
5.60425e-07
1.14072e-05
0.309986
0.75255
0.770391
0.769963
0.769842
0.770306
0.769922
0.770895
0.752937
0.310277
0.0624821
0.0723799
0.0584698
0.0585532
0.0568799
0.0574456
0.0584112
0.0582056
0.0723364
0.0628269
0.017164
0.0281911
0.0182492
0.0158383
0.019635
0.0192655
0.0146559
0.0198714
0.0281764
0.0172949
0.00612445
0.0122631
0.00333305
0.00190595
5.73297e-05
0.00014772
0.00569417
0.000545793
0.0122292
0.0061953
0.0026665
0.00535096
0.000541283
0.00089805
8.7976e-07
2.98345e-07
0.0031424
2.34008e-06
0.00541876
0.0027009
0.00136461
0.00240757
3.89049e-05
4.80268e-08
8.97581e-07
2.45533e-07
8.59629e-06
2.40309e-07
0.00226299
0.00137997
0.000779346
0.00100766
8.97133e-06
9.61092e-10
1.82022e-09
1.87281e-08
4.54803e-07
4.71784e-07
0.00135556
0.000791393
0.000492679
0.000673204
2.77346e-06
5.31521e-10
7.33247e-10
4.01343e-09
3.82085e-08
1.24921e-07
0.000706136
0.000495749
0.000332955
0.000392422
2.40255e-06
7.51591e-10
7.46718e-10
1.53594e-09
9.09492e-10
4.50559e-08
0.000383477
0.000337795
0.000238313
0.000219566
1.22497e-06
6.70303e-10
9.71356e-10
9.21486e-10
3.08104e-10
3.34262e-08
0.000154503
0.000242237
0.00017793
0.000100817
7.51177e-07
8.03057e-10
1.06142e-09
4.88474e-10
2.38496e-09
2.45551e-08
6.58669e-05
0.000181505
0.000137486
5.21196e-05
4.13333e-07
6.84078e-10
3.13945e-11
1.75226e-10
2.70456e-09
1.38271e-08
3.32062e-05
0.000140825
0.000108911
2.99225e-05
3.40339e-07
9.17892e-10
4.48122e-10
1.64022e-10
9.72261e-10
1.0915e-08
2.08139e-05
0.000112492
8.8526e-05
1.91785e-05
3.83782e-07
1.80508e-09
4.07061e-10
1.10642e-10
1.36707e-09
8.77205e-09
1.44061e-05
9.21952e-05
7.32497e-05
1.39442e-05
3.77567e-07
2.99229e-09
7.14289e-10
6.95938e-11
5.99975e-10
1.93689e-08
1.0596e-05
7.71258e-05
6.16091e-05
1.10966e-05
3.77107e-07
4.76973e-09
5.81467e-10
4.71195e-11
5.44081e-10
1.60025e-08
8.16822e-06
6.57983e-05
5.25804e-05
9.73585e-06
4.01522e-07
7.63251e-09
1.0018e-09
2.53757e-11
6.59943e-10
1.77577e-08
6.56022e-06
5.68754e-05
4.53579e-05
8.94808e-06
4.21046e-07
6.23383e-09
1.06438e-09
4.89244e-11
8.61672e-10
1.1354e-08
5.44858e-06
4.9952e-05
3.94186e-05
8.47335e-06
4.70092e-07
2.15014e-08
5.70125e-10
1.3145e-10
7.16741e-10
3.07714e-08
4.62576e-06
4.41581e-05
3.44315e-05
8.43472e-06
5.63093e-07
2.21865e-08
2.40508e-09
1.69455e-10
7.26987e-10
2.91996e-08
3.97273e-06
3.96417e-05
3.01363e-05
8.54723e-06
6.48691e-07
3.99692e-08
2.0321e-09
1.50689e-10
7.11107e-10
2.79225e-08
3.40343e-06
3.55415e-05
2.636e-05
8.59212e-06
7.5817e-07
4.84144e-08
4.77073e-09
7.26108e-10
1.07981e-09
2.4162e-08
2.91847e-06
3.24391e-05
2.2948e-05
8.85499e-06
9.18178e-07
6.98487e-08
4.90317e-09
8.5979e-10
1.13869e-09
2.00772e-08
2.46017e-06
2.92507e-05
1.98282e-05
9.34327e-06
1.2182e-06
1.10937e-07
1.26797e-08
1.07502e-09
1.15547e-09
1.69181e-08
2.08347e-06
2.70404e-05
1.68544e-05
9.82712e-06
1.50074e-06
1.7356e-07
1.69186e-08
2.92595e-09
2.077e-09
1.44373e-08
1.70459e-06
2.42532e-05
1.40881e-05
1.0876e-05
2.06353e-06
2.63082e-07
4.42052e-08
4.47578e-09
2.33516e-09
1.29479e-08
1.41576e-06
2.25967e-05
1.14634e-05
1.12447e-05
3.04028e-06
4.66721e-07
6.15279e-08
1.25863e-08
5.45762e-09
1.0635e-08
1.08521e-06
1.96701e-05
9.01821e-06
1.18713e-05
4.72948e-06
7.9389e-07
1.52823e-07
2.22409e-08
6.37657e-09
1.33004e-08
8.80845e-07
1.81583e-05
6.77834e-06
1.27184e-05
6.5012e-06
1.44599e-06
2.66158e-07
6.34471e-08
2.26671e-08
1.46762e-08
6.09959e-07
1.39762e-05
4.89488e-06
1.37684e-05
8.83026e-06
2.50961e-06
6.28559e-07
1.45623e-07
4.24396e-08
2.75519e-08
6.42118e-07
1.27039e-05
0.310277
0.752743
0.771277
0.770394
0.770286
0.770765
0.770376
0.771315
0.753126
0.310563
0.0629392
0.0729052
0.060074
0.0579261
0.058031
0.0581207
0.0585486
0.0590127
0.0729035
0.0632825
0.0173951
0.028375
0.0223171
0.0197517
0.0196253
0.0197514
0.0173291
0.0202846
0.0283556
0.0175303
0.00622897
0.0122904
0.000363746
0.000562238
0.000407508
0.000599062
0.0045343
0.00110256
0.0123181
0.00630153
0.00271703
0.00534966
4.25561e-06
1.16569e-06
3.89646e-05
2.81066e-06
0.0007811
9.31597e-06
0.00532691
0.00275581
0.0013899
0.00221844
1.38916e-06
1.78562e-07
2.94901e-05
2.58253e-07
6.827e-05
5.51866e-07
0.00233242
0.0014041
0.000794953
0.00128768
4.15891e-06
1.44021e-07
5.51586e-06
5.93069e-07
5.18467e-05
6.20194e-07
0.00107121
0.000809795
0.000499441
0.000651328
1.33185e-06
1.39438e-07
4.21546e-06
1.1088e-07
1.22194e-05
1.36945e-06
0.000445292
0.00050711
0.000338838
0.000351772
9.4812e-07
5.35919e-08
2.59896e-06
4.59671e-08
6.9448e-06
1.61361e-06
0.000321963
0.000343594
0.000242065
0.000171258
1.33231e-06
3.2199e-08
1.23797e-06
2.83248e-08
3.55059e-06
8.14806e-07
0.00018895
0.000245846
0.000180429
8.68576e-05
7.54126e-07
2.14536e-08
6.00835e-07
2.19582e-08
1.53509e-06
5.67533e-07
0.000107206
0.000183511
0.000139493
5.86634e-05
1.4352e-06
2.46992e-08
4.63213e-07
1.77331e-08
8.92679e-07
3.37212e-07
5.19301e-05
0.00014177
0.000110332
4.10996e-05
8.09556e-07
7.47415e-08
3.19251e-07
2.55034e-08
4.76094e-07
2.04566e-07
2.86534e-05
0.00011263
9.01038e-05
2.86279e-05
9.51277e-07
4.90722e-08
2.2165e-07
3.15851e-08
2.83428e-07
2.41292e-07
1.78345e-05
9.19195e-05
7.3931e-05
1.96343e-05
8.27176e-07
1.5984e-07
2.44531e-07
4.02752e-08
1.92887e-07
2.45071e-07
1.22907e-05
7.66525e-05
6.21845e-05
1.34236e-05
8.0022e-07
9.33221e-08
2.20263e-07
6.00816e-08
1.86739e-07
2.31032e-07
9.28876e-06
6.53003e-05
5.32325e-05
1.23512e-05
6.00822e-07
1.61123e-07
1.76254e-07
3.00905e-08
1.67622e-07
2.41067e-07
7.54661e-06
5.6424e-05
4.59972e-05
1.11355e-05
6.17711e-07
1.69324e-07
1.54847e-07
9.10986e-08
1.44747e-07
2.24804e-07
6.33261e-06
4.95315e-05
4.00423e-05
9.72484e-06
5.78038e-07
1.76921e-07
1.20344e-07
7.19363e-08
1.46098e-07
1.62869e-07
5.37841e-06
4.37506e-05
3.4991e-05
8.32528e-06
5.84404e-07
1.72996e-07
1.52944e-07
5.3416e-08
1.43459e-07
2.0668e-07
4.59238e-06
3.92426e-05
3.06309e-05
8.80196e-06
6.7101e-07
1.71017e-07
1.48479e-07
8.59503e-08
1.33397e-07
1.96112e-07
3.91712e-06
3.51427e-05
2.6758e-05
8.53041e-06
7.80209e-07
1.69192e-07
1.48359e-07
9.42931e-08
1.33518e-07
1.48562e-07
3.3278e-06
3.20554e-05
2.32807e-05
8.82776e-06
1.02662e-06
1.74749e-07
1.31575e-07
8.86174e-08
1.40827e-07
1.7594e-07
2.82865e-06
2.89061e-05
2.00663e-05
9.33461e-06
1.272e-06
2.477e-07
1.50817e-07
1.01491e-07
1.36874e-07
1.76417e-07
2.37324e-06
2.67128e-05
1.70055e-05
1.02618e-05
1.64464e-06
2.94039e-07
1.55389e-07
1.17012e-07
1.43136e-07
1.79848e-07
1.99971e-06
2.40165e-05
1.40882e-05
1.10928e-05
2.18268e-06
4.77613e-07
2.32942e-07
1.49321e-07
1.62981e-07
1.70473e-07
1.63581e-06
2.23456e-05
1.13274e-05
1.17602e-05
3.37617e-06
6.77121e-07
2.70971e-07
1.93404e-07
1.95497e-07
1.98575e-07
1.38063e-06
1.96029e-05
8.62283e-06
1.27682e-05
5.51251e-06
1.28276e-06
5.39799e-07
2.88393e-07
2.62628e-07
2.48998e-07
1.10397e-06
1.8104e-05
6.26622e-06
1.44439e-05
8.00787e-06
2.2656e-06
6.82691e-07
4.60819e-07
3.56296e-07
3.70628e-07
1.15687e-06
1.44748e-05
4.86428e-06
1.67316e-05
1.25348e-05
4.5942e-06
1.80168e-06
7.6531e-07
5.83681e-07
5.07969e-07
1.39186e-06
1.25932e-05
0.311352
0.731672
0.75312
0.752926
0.752788
0.752785
0.752929
0.753113
0.732069
0.311623
0.0639249
0.0828001
0.0729373
0.0723921
0.0722863
0.0722766
0.0723954
0.0728493
0.0828944
0.0642421
0.0177553
0.029111
0.0284653
0.0282394
0.0281735
0.02816
0.0281906
0.0283491
0.0295336
0.0179235
0.00636832
0.0127954
0.0124865
0.0123033
0.0123087
0.012253
0.0122472
0.0122974
0.013056
0.00646165
0.00277477
0.00573045
0.00551615
0.00546675
0.00539505
0.0054373
0.0054267
0.00536789
0.00598515
0.00282328
0.00140887
0.00260299
0.00245678
0.00230741
0.00243809
0.00227656
0.00227003
0.00220955
0.00258401
0.00143357
0.000797692
0.00122483
0.0011417
0.0013407
0.00101833
0.00135186
0.00134989
0.00133162
0.00163922
0.000812149
0.000497686
0.000577489
0.000471281
0.000685926
0.000692908
0.000690394
0.000682131
0.000671403
0.000963877
0.0005077
0.000333052
0.000321177
0.000364385
0.00037301
0.000402878
0.000370198
0.000374361
0.000366839
0.000540146
0.000340014
0.000235524
0.00018246
0.000223998
0.000158622
0.000224817
0.000118687
0.00016148
0.000127211
0.00024599
0.00024082
0.000174157
0.000100506
0.000128927
5.72814e-05
0.00010314
4.17481e-05
7.78411e-05
3.64686e-05
0.000125294
0.00017769
0.000133364
6.21002e-05
6.1107e-05
2.28767e-05
5.20977e-05
2.09202e-05
4.07732e-05
1.56271e-05
7.29854e-05
0.000136135
0.000105015
4.33342e-05
3.23572e-05