/*--------------------------------*- C++ -*----------------------------------*\
| =========                 |                                                 |
| \\      /  F ield         | OpenFOAM: The Open Source CFD Toolbox           |
|  \\    /   O peration     | Version:  4.1                                   |
|   \\  /    A nd           | Web:      www.OpenFOAM.org                      |
|    \\/     M anipulation  |                                                 |
\*---------------------------------------------------------------------------*/
FoamFile
{
    version     2.0;
    format      ascii;
    class       volScalarField;
    location    "200";
    object      k;
}
// * * * * * * * * * * * * * * * * * * * * * * * * * * * * * * * * * * * * * //

dimensions      [0 2 -2 0 0 0 0];

internalField   nonuniform List<scalar> 
12000
(
0.116546
0.113876
0.113546
0.113472
0.113454
0.113454
0.113472
0.113549
0.113908
0.11658
0.0404674
0.0397422
0.0394574
0.0392772
0.0392214
0.0392215
0.0392769
0.0394515
0.0397337
0.040455
0.0169391
0.0168687
0.0166743
0.0165303
0.016477
0.0164777
0.0165327
0.0166823
0.0168807
0.0169404
0.0083794
0.00839312
0.008379
0.00828392
0.00824263
0.00824279
0.00828538
0.00837636
0.00835991
0.00837976
0.00476256
0.00481588
0.00484482
0.00478814
0.00475855
0.00475975
0.00479022
0.00485066
0.00481173
0.00476459
0.00301206
0.00308411
0.00311088
0.0030758
0.0030538
0.00305333
0.00307716
0.00311457
0.00307286
0.0030142
0.00206344
0.00213292
0.00215334
0.00212806
0.00211127
0.0021135
0.00213027
0.00216003
0.00213636
0.00206813
0.00150106
0.00156091
0.00158394
0.00156646
0.00155341
0.00155374
0.00156694
0.00158517
0.00156972
0.00150792
0.00114481
0.00120063
0.00121967
0.00120746
0.00119747
0.00119385
0.00120924
0.0012228
0.00120633
0.00115259
0.000905876
0.000957248
0.000975268
0.000965902
0.000957896
0.000956303
0.000967047
0.000977834
0.000960093
0.000914495
0.000738196
0.000784303
0.000802543
0.000794823
0.000788827
0.000787646
0.000796462
0.000805287
0.000786969
0.000747594
0.000615645
0.000657057
0.000675961
0.000670655
0.000664803
0.000664709
0.000672399
0.000679279
0.000661016
0.000626354
0.000523257
0.000560934
0.000580634
0.000576104
0.000572001
0.000572239
0.000578058
0.000584042
0.000566067
0.000535613
0.000451922
0.000487264
0.000506425
0.000503087
0.000499628
0.000500637
0.000505433
0.000510589
0.00049325
0.000466045
0.000395637
0.000429689
0.00044781
0.000445419
0.000442558
0.000443968
0.000448294
0.000452294
0.000436232
0.000411738
0.000350259
0.000383681
0.000400836
0.000399084
0.000396934
0.000398603
0.000402458
0.000405486
0.000390962
0.000368572
0.000312847
0.000346065
0.000362179
0.000361197
0.000359641
0.000361351
0.000365026
0.00036793
0.000354688
0.000333958
0.000281252
0.000314593
0.000330145
0.000329818
0.000329043
0.000330922
0.000334388
0.00033721
0.00032499
0.000305691
0.000253866
0.000287575
0.000303124
0.000303523
0.000303344
0.000305179
0.000308644
0.000312264
0.000300829
0.000282741
0.000229451
0.000264069
0.00027997
0.000281072
0.000281625
0.000283889
0.000287268
0.000291267
0.000280653
0.00026363
0.000206971
0.000242796
0.000259751
0.000261755
0.000262719
0.000265103
0.000268796
0.000273777
0.000264369
0.000248303
0.000185486
0.000223163
0.00024153
0.00024475
0.000246567
0.000249734
0.000253433
0.000258705
0.000250563
0.00023538
0.000164026
0.000203692
0.000224801
0.000229529
0.000231749
0.000235243
0.000239737
0.000246185
0.000239914
0.000225654
0.000141413
0.000183996
0.000208682
0.000215774
0.00021927
0.000223831
0.000228401
0.000235291
0.000230679
0.000217473
0.000116265
0.000161781
0.000192324
0.000202339
0.000206567
0.000211753
0.000217916
0.000226574
0.000224328
0.000212645
8.55855e-05
0.000136559
0.000174219
0.000189398
0.000196191
0.000202627
0.000208704
0.000218491
0.000218395
0.000208747
4.83412e-05
0.000103924
0.000152351
0.000173258
0.000182811
0.000191123
0.00019997
0.00021268
0.000215242
0.000209222
3.04232e-05
6.97361e-05
0.000123184
0.000155368
0.000171013
0.000181308
0.000189878
0.000205033
0.000213051
0.000210246
3.97163e-05
5.80341e-05
8.18349e-05
0.000112873
0.000146563
0.000167211
0.000179564
0.000199025
0.000211448
0.000216594
6.53298e-05
8.40916e-05
8.77084e-05
9.36343e-05
0.000101428
0.000125659
0.000156204
0.000182834
0.000208101
0.000225428
0.113876
0.0206019
0.0180977
0.0180832
0.0180852
0.0180852
0.0180832
0.0180977
0.0205922
0.113844
0.0397409
0.00169118
0.000833828
0.000823156
0.00082328
0.000823333
0.000823258
0.000834347
0.00168827
0.0396098
0.016867
0.000536747
0.000221862
0.000213935
0.000213298
0.000213056
0.000213473
0.00021915
0.000527313
0.0167949
0.00839075
0.000347204
0.000126141
0.000126349
0.000126875
0.000127156
0.000126354
0.000128542
0.0003884
0.00829421
0.0048135
0.000268427
7.92403e-05
7.81197e-05
7.82285e-05
7.79542e-05
7.8001e-05
7.88562e-05
0.000287696
0.00475313
0.00308143
0.00020046
5.2984e-05
5.19235e-05
5.21774e-05
5.2005e-05
5.19404e-05
5.16637e-05
0.00019546
0.00303251
0.00213025
0.000171166
4.02906e-05
4.36908e-05
4.39691e-05
4.458e-05
4.37052e-05
4.55526e-05
0.000131685
0.00210948
0.00155789
0.000139419
3.02695e-05
3.37645e-05
3.37537e-05
4.13567e-05
3.61363e-05
3.63274e-05
9.89973e-05
0.00155506
0.00119755
0.00014171
2.27126e-05
2.31653e-05
2.20345e-05
3.11212e-05
2.18291e-05
2.35476e-05
7.01706e-05
0.00119876
0.000953962
0.000149916
1.42563e-05
1.97326e-05
1.67625e-05
2.19031e-05
1.92606e-05
1.86565e-05
7.48823e-05
0.0009571
0.000780646
0.000165018
2.69735e-05
2.27484e-05
1.54502e-05
1.26979e-05
2.2245e-05
1.1244e-05
0.000102323
0.000786468
0.000653036
0.000172368
3.80571e-05
4.00306e-05
1.98891e-05
2.3362e-05
3.89004e-05
2.46074e-05
0.00011907
0.00066201
0.000556558
0.000180124
4.56168e-05
3.17635e-05
3.85061e-05
3.0683e-05
3.41183e-05
3.43526e-05
0.000131951
0.000567976
0.000482355
0.000184341
4.38058e-05
3.69896e-05
3.19152e-05
3.51765e-05
3.86474e-05
4.14782e-05
0.000137506
0.000495722
0.000424101
0.000184663
4.9664e-05
4.87432e-05
3.48917e-05
3.53436e-05
4.77531e-05
4.73117e-05
0.000139518
0.000439103
0.000377245
0.000179171
4.67406e-05
5.34873e-05
4.34914e-05
3.56369e-05
5.27116e-05
4.89303e-05
0.000137357
0.000394193
0.000338713
0.00017332
4.51285e-05
5.38283e-05
4.9416e-05
3.41365e-05
5.37231e-05
5.17712e-05
0.000131665
0.000357774
0.000306176
0.000164231
4.66934e-05
5.30332e-05
5.12762e-05
3.63334e-05
5.27468e-05
5.05636e-05
0.000125016
0.000328005
0.000278061
0.000158824
4.68949e-05
4.97668e-05
4.86857e-05
3.79635e-05
5.07631e-05
4.98789e-05
0.000117899
0.000302964
0.000253318
0.000158915
4.744e-05
4.68637e-05
4.72167e-05
3.98739e-05
4.95917e-05
4.9597e-05
0.000110881
0.000282302
0.000230959
0.000160529
4.71893e-05
4.68842e-05
4.72544e-05
4.01567e-05
4.84615e-05
4.88658e-05
0.000104024
0.000264142
0.00021024
0.00016258
4.66511e-05
4.56452e-05
4.73028e-05
4.127e-05
4.82249e-05
4.88336e-05
9.75239e-05
0.000249531
0.000190327
0.00016272
5.10082e-05
4.59764e-05
4.62693e-05
4.2682e-05
4.8227e-05
4.65789e-05
9.14072e-05
0.000235556
0.000170576
0.000164536
6.24007e-05
4.75655e-05
4.84936e-05
4.46268e-05
4.89063e-05
4.89085e-05
8.57495e-05
0.000225241
0.000150151
0.000167207
7.61074e-05
4.87308e-05
4.80389e-05
4.60939e-05
4.9927e-05
4.81994e-05
8.07811e-05
0.000213584
0.000127767
0.000172248
9.87331e-05
5.41385e-05
5.03012e-05
4.87228e-05
5.19424e-05
4.97575e-05
7.61979e-05
0.000206003
0.00010292
0.00018194
0.00012163
6.42029e-05
5.4028e-05
5.23454e-05
5.58635e-05
5.42877e-05
7.63859e-05
0.000194717
7.51037e-05
0.000198406
0.00015751
8.49292e-05
6.38039e-05
5.83682e-05
6.00161e-05
6.11199e-05
7.607e-05
0.000189235
5.78915e-05
0.000221264
0.000198053
0.000118039
7.8895e-05
6.74129e-05
6.88658e-05
6.83882e-05
9.27861e-05
0.000176992
5.98955e-05
0.000249181
0.00025178
0.000188416
0.000114017
8.73926e-05
8.17016e-05
8.34866e-05
0.000110389
0.000176364
0.113545
0.0180984
0.0157125
0.0157104
0.0157053
0.015705
0.0157093
0.0157126
0.0180911
0.11347
0.0394561
0.000834434
0.000286486
0.000284666
0.000281974
0.00028228
0.00028444
0.000286728
0.000832471
0.0392906
0.0166738
0.000221122
1.03116e-05
1.04805e-05
1.05495e-05
9.5632e-06
1.10593e-05
9.66581e-06
0.00022068
0.0165877
0.00837421
0.000128306
1.15985e-07
3.17159e-08
9.80603e-08
6.52153e-08
1.13139e-07
7.5259e-08
0.000126285
0.00830539
0.00484217
8.01182e-05
3.09733e-08
4.30614e-08
1.9286e-08
1.83264e-08
9.81508e-09
4.29208e-08
7.94378e-05
0.00479584
0.00310666
5.30859e-05
3.88169e-08
6.31185e-08
2.38735e-08
1.58766e-08
1.47867e-08
6.30482e-08
5.2064e-05
0.00308452
0.00215203
4.50602e-05
2.71937e-08
3.45819e-07
3.18086e-08
2.24318e-08
3.47989e-08
6.83517e-08
4.42422e-05
0.00213922
0.00157918
3.3978e-05
2.45032e-08
2.09455e-07
2.50935e-08
1.59511e-08
6.25331e-08
5.59248e-08
3.2356e-05
0.00157912
0.00121592
2.4372e-05
2.15196e-08
9.737e-08
1.30255e-08
1.91486e-08
9.44628e-08
3.12845e-08
1.91551e-05
0.00122157
0.000972111
1.69815e-05
1.46588e-08
7.71694e-08
1.11528e-08
2.75438e-09
5.69629e-08
2.7778e-08
1.37798e-05
0.000978818
0.000798323
1.12907e-05
2.66572e-08
1.00874e-07
1.29701e-06
1.06423e-06
5.55033e-08
2.77307e-08
2.12289e-05
0.000806656
0.000672159
2.75681e-05
8.30471e-08
1.67047e-07
1.86785e-09
1.46567e-08
1.78455e-07
5.51013e-08
2.81495e-05
0.000680202
0.000576244
2.56647e-05
2.04135e-07
3.25648e-07
9.44869e-08
3.2628e-08
3.7098e-07
1.28005e-07
3.19819e-05
0.00058415
0.000501212
4.00483e-05
4.26243e-07
4.68795e-07
1.51911e-07
1.06861e-07
5.15795e-07
2.27258e-07
3.58753e-05
0.000509774
0.000441672
5.44148e-05
6.69437e-07
7.2555e-07
2.16964e-07
1.01735e-07
6.79035e-07
4.59482e-07
3.46566e-05
0.000451051
0.000393475
6.26114e-05
1.15851e-06
8.80775e-07
2.89376e-07
2.02554e-07
7.57764e-07
8.15792e-07
3.52315e-05
0.000404415
0.000353867
6.74719e-05
1.76938e-06
1.01839e-06
3.51542e-07
2.46523e-07
9.9673e-07
8.8996e-07
3.6322e-05
0.000366112
0.000320575
7.31604e-05
2.49084e-06
1.19635e-06
5.93744e-07
3.00948e-07
1.06423e-06
9.8011e-07
4.06445e-05
0.000335417
0.000292119
7.73477e-05
3.43883e-06
1.28094e-06
6.06606e-07
3.49717e-07
1.29389e-06
1.20491e-06
3.71851e-05
0.000308716
0.000267037
8.27117e-05
4.84238e-06
1.44907e-06
7.49188e-07
3.4241e-07
1.34604e-06
1.43815e-06
3.84551e-05
0.000287411
0.000244653
9.05862e-05
6.05401e-06
1.57648e-06
8.85984e-07
4.13254e-07
1.41035e-06
1.51975e-06
3.7536e-05
0.000267395
0.000223792
9.57938e-05
8.32277e-06
1.98865e-06
7.92093e-07
5.20737e-07
1.38022e-06
1.64716e-06
3.49319e-05
0.000251997
0.000204374
0.00011207
1.09925e-05
2.15586e-06
1.35334e-06
6.4689e-07
1.6912e-06
1.49446e-06
3.16594e-05
0.000235473
0.000185461
0.000118205
1.51012e-05
2.81681e-06
1.27537e-06
8.64389e-07
1.78681e-06
1.89329e-06
2.78127e-05
0.000223752
0.000166207
0.000119824
1.93378e-05
3.72187e-06
1.48232e-06
1.12599e-06
1.74964e-06
1.77117e-06
2.40338e-05
0.000208443
0.00014666
0.000126216
2.73107e-05
5.61411e-06
1.98491e-06
1.47023e-06
2.01717e-06
1.87888e-06
2.0379e-05
0.000198697
0.0001266
0.000132669
4.23096e-05
8.42834e-06
2.88568e-06
1.9878e-06
2.22347e-06
2.23245e-06
1.69992e-05
0.00018202
0.000105717
0.000146117
6.93178e-05
1.52636e-05
5.02636e-06
3.03167e-06
2.94143e-06
2.80087e-06
1.416e-05
0.000172087
8.5084e-05
0.000162857
9.96136e-05
2.85127e-05
8.7186e-06
4.341e-06
3.85787e-06
3.91088e-06
1.26521e-05
0.000148167
7.04735e-05
0.000186126
0.000145319
5.7047e-05
1.99306e-05
8.51903e-06
6.06425e-06
5.36486e-06
1.37749e-05
0.000134915
0.113472
0.0180838
0.0157102
0.0157023
0.015703
0.0157018
0.0157016
0.0157103
0.0180766
0.11339
0.0392759
0.000823631
0.000284151
0.000280729
0.000279466
0.000279759
0.000280784
0.00028401
0.000821644
0.0391115
0.0165289
0.000214006
1.068e-05
1.01804e-05
9.9943e-06
1.02864e-05
1.03213e-05
1.07582e-05
0.000214354
0.0164452
0.00828101
0.000126995
1.37456e-07
1.65789e-08
1.11782e-07
5.5411e-08
1.91727e-08
4.07542e-07
0.000125364
0.0082199
0.00478523
7.85684e-05
3.79155e-08
2.18216e-11
8.26463e-11
1.24941e-10
2.0162e-11
5.02783e-08
7.71009e-05
0.00474728
0.00307271
5.24703e-05
1.81354e-07
3.493e-12
4.13259e-15
8.70526e-13
2.34104e-14
5.72905e-08
5.15221e-05
0.00305427
0.00212497
4.44364e-05
1.03695e-07
4.52467e-12
1.10788e-13
1.2263e-12
3.75844e-12
3.78261e-07
4.3174e-05
0.00211898
0.0015621
3.65733e-05
2.08858e-07
5.32443e-12
7.42315e-13
3.90185e-12
5.61629e-12
4.42227e-07
3.52544e-05
0.00156232
0.00120373
2.39645e-05
1.52805e-07
4.85176e-12
5.04613e-14
4.11749e-12
1.38868e-11
2.69222e-07
2.03206e-05
0.00120901
0.000961644
2.0488e-05
8.66132e-08
3.46357e-11
2.20012e-13
1.34635e-12
1.4186e-11
3.01792e-07
1.70877e-05
0.000969025
0.000790598
2.19714e-05
1.49316e-07
3.74854e-11
3.38578e-12
4.17197e-12
4.36786e-11
3.72558e-07
2.31624e-05
0.00080005
0.000665265
3.99698e-05
3.30782e-07
3.46115e-10
2.90133e-12
5.02966e-12
3.37617e-10
4.76005e-07
4.23485e-05
0.000676171
0.000570698
5.64402e-05
6.01717e-07
9.67435e-10
4.77348e-11
2.02629e-11
7.57066e-10
4.59102e-07
3.54074e-05
0.000582472
0.000496845
6.41911e-05
9.77313e-07
7.67145e-09
5.32344e-11
6.47221e-11
1.52449e-09
5.05441e-07
4.33355e-05
0.000510271
0.000438001
7.31501e-05
1.5655e-06
1.02336e-08
1.79752e-10
1.4803e-10
2.34648e-09
5.06697e-07
4.54729e-05
0.000452773
0.000390191
7.24223e-05
2.48288e-06
3.68916e-08
6.75585e-10
2.38309e-10
2.99107e-09
5.06588e-07
4.47062e-05
0.000406968
0.000350823
7.50276e-05
3.05173e-06
4.11441e-08
2.28221e-09
6.28592e-10
4.10187e-09
5.15095e-07
4.37969e-05
0.00036887
0.000317623
8.06022e-05
3.84726e-06
1.34905e-07
3.27702e-10
6.03164e-10
5.06998e-09
5.19194e-07
4.29334e-05
0.000338321
0.000289213
8.39848e-05
5.11696e-06
1.84831e-07
1.04144e-08
1.58658e-09
7.00522e-09
5.59014e-07
4.10299e-05
0.000311443
0.000264354
9.02052e-05
6.64411e-06
3.47842e-07
1.79935e-08
1.09514e-09
9.52599e-09
5.20015e-07
3.88279e-05
0.000290256
0.000241994
9.28898e-05
7.5687e-06
4.49158e-07
2.80356e-08
1.35862e-09
1.06494e-08
5.12031e-07
3.55586e-05
0.000269792
0.000221265
9.53444e-05
9.47848e-06
6.36269e-07
5.31018e-08
4.06288e-09
1.0858e-08
4.73102e-07
3.22665e-05
0.000254514
0.000202015
0.000109241
1.26524e-05
1.0328e-06
5.79029e-08
4.69641e-09
1.51486e-08
3.83678e-07
2.8463e-05
0.00023745
0.000183373
0.000114608
1.59612e-05
1.49216e-06
2.15667e-07
2.17748e-08
2.05833e-08
3.08056e-07
2.48004e-05
0.00022587
0.000164649
0.000117315
1.8731e-05
2.47182e-06
2.61805e-07
1.97747e-08
1.72412e-08
2.61112e-07
2.09714e-05
0.000209965
0.000145767
0.000120219
2.57491e-05
3.35061e-06
6.34818e-07
9.63759e-08
4.91277e-08
1.91866e-07
1.74856e-05
0.000200031
0.000126743
0.00012522
3.64806e-05
6.05665e-06
8.2761e-07
1.2628e-07
5.11242e-08
1.78945e-07
1.37562e-05
0.00018304
0.000107371
0.000132966
5.74743e-05
1.01226e-05
1.94144e-06
4.065e-07
1.47731e-07
1.75084e-07
1.08705e-05
0.000171054
8.81901e-05
0.00014583
8.03619e-05
1.85716e-05
3.43771e-06
6.56473e-07
1.84384e-07
1.70562e-07
7.39393e-06
0.000147636
6.9599e-05
0.000158105
0.000111871
3.3544e-05
8.40755e-06
2.15797e-06
6.16201e-07
3.32916e-07
5.96704e-06
0.000124781
0.113454
0.0180857
0.0157101
0.0157024
0.0157025
0.0157026
0.0157023
0.01571
0.0180785
0.113372
0.0392199
0.000823711
0.000284075
0.000279279
0.000279319
0.000279636
0.0002805
0.00028424
0.000821643
0.0390562
0.0164757
0.000212976
1.06768e-05
1.00207e-05
1.05471e-05
9.61791e-06
9.82797e-06
1.05258e-05
0.000214027
0.0163924
0.00823898
0.000127938
2.14924e-08
3.83083e-07
5.0836e-08
1.04839e-08
1.68305e-08
4.06208e-08
0.000126475
0.00817961
0.00475489
7.89313e-05
2.86384e-08
2.28277e-10
1.58775e-10
1.12809e-11
3.35207e-11
8.68771e-09
7.78774e-05
0.00471824
0.0030504
5.3013e-05
2.41815e-07
5.03999e-15
2.15028e-13
1.55941e-14
6.61741e-15
1.85044e-08
5.20793e-05
0.00303259
0.00210698
4.52047e-05
1.74027e-07
2.44604e-12
1e-15
1e-15
1.33807e-13
2.07242e-08
4.34492e-05
0.0021023
0.00155021
3.27986e-05
1.54025e-07
6.5593e-12
1e-15
1e-15
5.86468e-13
1.72701e-08
3.35853e-05
0.0015501
0.00119323
2.43783e-05
1.2954e-07
3.43612e-12
1e-15
1e-15
7.64062e-13
1.16343e-08
1.83172e-05
0.00119921
0.00095345
1.89369e-05
7.24039e-08
2.58081e-11
1e-15
1e-15
6.39341e-12
2.39407e-08
1.41796e-05
0.000961282
0.000783561
2.12265e-05
3.93417e-07
3.70242e-10
1.46725e-14
1.02956e-15
6.87292e-12
5.58666e-08
2.54743e-05
0.000793383
0.000659017
3.06488e-05
4.76326e-07
8.22801e-10
1.25507e-13
2.96232e-15
3.40893e-11
1.17364e-07
3.50224e-05
0.000670921
0.000565552
4.61741e-05
6.16216e-07
1.03507e-09
6.81886e-13
1.7624e-14
4.59746e-11
1.1705e-07
3.34765e-05
0.00057788
0.000492435
4.56141e-05
7.90182e-07
5.65876e-09
5.87565e-12
1.06105e-13
2.04612e-10
1.61692e-07
4.13589e-05
0.000505783
0.000434472
5.4779e-05
1.14814e-06
5.32462e-09
4.78636e-10
4.16136e-11
3.46856e-10
2.17947e-07
3.97446e-05
0.000448412
0.000387465
6.2044e-05
1.60151e-06
2.64703e-08
2.32069e-10
4.36261e-12
5.62206e-10
2.92407e-07
4.3471e-05
0.000402946
0.000348633
6.69229e-05
2.31917e-06
3.16373e-08
2.25271e-10
1.66048e-12
5.56965e-10
3.10253e-07
4.40198e-05
0.000365233
0.000315903
6.89867e-05
2.90937e-06
6.7191e-08
8.94743e-10
1.07998e-11
8.72757e-10
3.94341e-07
4.27086e-05
0.000334996
0.000287791
7.40743e-05
3.90758e-06
9.95923e-08
1.34339e-09
9.41481e-12
7.72656e-10
3.76015e-07
4.02692e-05
0.000308285
0.000263017
7.51656e-05
4.91603e-06
1.85628e-07
7.21009e-09
1.58875e-10
8.84004e-10
3.86056e-07
3.78686e-05
0.00028725
0.000240677
7.76995e-05
6.47598e-06
2.82472e-07
6.19833e-09
9.20054e-10
1.0591e-09
4.09874e-07
3.50122e-05
0.000266856
0.000220243
8.41832e-05
8.47302e-06
4.87616e-07
3.58391e-08
2.05182e-09
1.21427e-09
4.07684e-07
3.24619e-05
0.000251833
0.000200944
8.96829e-05
1.10911e-05
8.55173e-07
5.25389e-08
3.66705e-09
1.94098e-09
3.85052e-07
2.92864e-05
0.000234924
0.000182337
9.64183e-05
1.46753e-05
1.32582e-06
1.56167e-07
6.86888e-09
2.45348e-09
3.45734e-07
2.63995e-05
0.000223805
0.000163797
0.000104154
1.77939e-05
2.33845e-06
2.27699e-07
3.41403e-08
2.35608e-09
3.04798e-07
2.27351e-05
0.000208229
0.000145009
0.000114222
2.3801e-05
3.1281e-06
5.67763e-07
4.89121e-08
1.31839e-08
2.50065e-07
1.95333e-05
0.000198847
0.000125922
0.000122657
3.5619e-05
5.94494e-06
7.64228e-07
1.66677e-07
2.25926e-08
1.96673e-07
1.55595e-05
0.0001822
0.000106051
0.000130941
5.62199e-05
9.90288e-06
1.88788e-06
2.52213e-07
2.71315e-08
1.35277e-07
1.2417e-05
0.000171077
8.61102e-05
0.000144635
7.927e-05
1.78223e-05
3.21453e-06
7.35846e-07
1.95817e-07
1.60504e-07
8.66188e-06
0.000147017
6.5832e-05
0.000156953
0.000110649
3.34425e-05
8.28706e-06
1.79242e-06
3.52948e-07
2.11333e-07
7.05741e-06
0.00012723
0.113454
0.0180857
0.0157088
0.0157014
0.015702
0.0157028
0.0157032
0.0157053
0.0180785
0.113372
0.0392198
0.000823754
0.000284007
0.00027968
0.000279262
0.000279859
0.000279356
0.00028202
0.000821788
0.0390565
0.0164763
0.000212667
9.80427e-06
1.0575e-05
1.04407e-05
9.73453e-06
1.01489e-05
1.05973e-05
0.000213923
0.0163934
0.0082394
0.00012765
2.85155e-08
5.39755e-08
1.79836e-08
1.08445e-08
1.43369e-07
9.69591e-08
0.000127743
0.00817882
0.00475535
7.8683e-05
1.39129e-08
3.22229e-10
1.64421e-11
9.09174e-12
1.82934e-11
2.14526e-08
7.83172e-05
0.00471878
0.00305043
5.29437e-05
1.45885e-08
4.58648e-12
8.1802e-15
1e-15
1e-15
3.37091e-08
5.21627e-05
0.00303136
0.00210722
4.52747e-05
2.68022e-08
2.43871e-14
1e-15
1e-15
4.50573e-14
7.0816e-08
4.57843e-05
0.00210465
0.00155025
3.26035e-05
1.68289e-08
4.92126e-14
4.44253e-15
1e-15
1.19613e-13
5.30269e-08
3.57052e-05
0.00154872
0.00119304
2.54839e-05
1.04112e-08
4.19723e-14
2.84697e-15
1e-15
1.64705e-14
5.35073e-08
2.75449e-05
0.00119607
0.000953344
1.9781e-05
1.91793e-09
4.12981e-14
2.51456e-15
1e-15
8.10635e-15
3.9179e-08
2.12347e-05
0.000959508
0.000783272
2.20879e-05
1.88759e-06
8.87526e-14
1.32587e-13
1e-15
9.57422e-15
5.2852e-08
1.28206e-05
0.000791783
0.000659246
3.54406e-05
5.47812e-08
9.56125e-13
2.45218e-14
1e-15
4.65237e-14
8.19441e-08
2.61264e-05
0.000669754
0.000565512
5.47774e-05
1.63971e-07
5.18794e-12
1.95951e-13
1e-15
3.18775e-14
9.56452e-08
3.60016e-05
0.000577377
0.000492548
4.79017e-05
3.56049e-07
1.81843e-10
8.1848e-14
1e-15
1.35758e-13
1.04392e-07
4.50788e-05
0.0005056
0.000434396
5.02669e-05
5.48339e-07
8.79242e-10
1.30261e-12
1.24252e-15
7.69886e-13
1.65987e-07
4.99499e-05
0.000448592
0.000387312
5.8645e-05
7.49777e-07
3.76248e-09
4.72571e-12
3.96717e-15
3.82445e-12
1.39575e-07
5.08429e-05
0.000403345
0.000348421
6.36496e-05
1.14263e-06
8.24457e-09
4.38869e-11
8.94863e-14
3.67736e-11
2.88259e-07
4.78919e-05
0.000365804
0.000315717
6.6394e-05
1.72711e-06
1.0539e-08
1.32504e-10
3.92466e-13
3.48219e-11
2.41597e-07
4.38597e-05
0.000335468
0.000287599
7.00788e-05
2.43506e-06
3.20753e-08
5.22213e-10
1.76695e-11
2.32784e-12
1.76512e-07
3.9543e-05
0.000308732
0.000262921
7.32997e-05
3.47585e-06
8.14243e-08
4.7217e-10
3.83597e-11
1.39561e-10
2.2141e-07
3.55288e-05
0.000287426
0.000240683
7.7741e-05
4.87176e-06
1.52754e-07
6.81635e-09
2.139e-10
2.07715e-10
2.12765e-07
3.15589e-05
0.0002669
0.000220317
8.32383e-05
6.841e-06
3.01471e-07
1.29732e-08
4.56887e-10
2.50779e-10
1.99764e-07
2.80926e-05
0.000251469
0.000201007
8.93061e-05
9.23556e-06
5.5162e-07
2.24325e-08
2.18507e-09
1.03503e-10
1.88545e-07
2.44433e-05
0.000234272
0.000182446
9.79981e-05
1.36266e-05
1.09179e-06
1.07128e-07
5.87759e-09
5.53281e-10
1.47231e-07
2.14717e-05
0.000222641
0.000164021
0.000107368
1.74321e-05
1.95054e-06
1.54795e-07
1.00481e-08
1.45162e-08
1.20538e-07
1.80331e-05
0.000206685
0.000145453
0.000118511
2.43693e-05
3.16399e-06
4.55977e-07
5.79939e-08
1.04251e-08
9.07778e-08
1.55088e-05
0.000196838
0.000126442
0.000125384
3.69433e-05
6.02605e-06
7.22201e-07
8.98623e-08
2.92723e-08
7.76796e-08
1.21365e-05
0.000179815
0.000106712
0.000133409
5.88764e-05
9.88514e-06
1.81728e-06
3.43814e-07
6.70439e-08
7.37349e-08
1.0003e-05
0.000169068
8.69266e-05
0.000146454
8.05941e-05
1.93422e-05
3.44065e-06
5.89623e-07
8.85116e-08
8.25084e-08
6.81035e-06
0.000144267
6.68368e-05
0.000158328
0.000112669
3.30538e-05
8.35892e-06
2.0702e-06
5.54063e-07
1.19343e-07
6.03681e-06
0.000124951
0.113472
0.0180838
0.0157103
0.0157026
0.0157026
0.0156976
0.0157031
0.0157049
0.0180766
0.113391
0.0392751
0.000823734
0.000284343
0.000280059
0.000280451
0.000278061
0.000279858
0.000282561
0.000821788
0.0391121
0.0165316
0.000212769
1.06358e-05
9.93618e-06
9.77207e-06
1.00972e-05
9.93916e-06
1.06782e-05
0.000214391
0.0164479
0.00828047
0.000127761
8.97388e-08
2.95829e-07
1.03195e-08
3.27692e-08
3.98897e-07
9.89447e-08
0.000126706
0.00822156
0.0047866
7.83064e-05
6.80589e-08
5.48803e-10
7.92184e-12
2.22413e-12
2.93508e-09
2.10075e-08
7.84877e-05
0.00474883
0.00307171
5.23756e-05
5.29573e-08
4.58817e-14
3.73978e-11
2.42382e-14
1.77118e-13
2.91585e-08
5.22549e-05
0.00305539
0.00212769
4.68573e-05
1.23169e-07
2.2704e-11
1.52549e-11
2.98972e-15
1.58482e-12
4.84435e-08
4.34412e-05
0.00212036
0.00156128
3.76508e-05
1.55673e-07
1.20918e-10
1.42123e-10
6.05097e-15
9.62544e-13
6.23536e-08
3.57436e-05
0.00156318
0.00120278
2.94147e-05
2.05639e-07
2.92364e-10
3.973e-10
1.09969e-14
4.64411e-13
1.57207e-08
2.25711e-05
0.00120869
0.000961218
2.4919e-05
1.98535e-07
2.12413e-10
4.89394e-10
1.29617e-14
1.14521e-12
1.69317e-08
1.73386e-05
0.000968968
0.000790472
1.43478e-05
1.12987e-07
1.32675e-08
9.79849e-10
7.33967e-14
7.31301e-12
1.99172e-08
2.47215e-05
0.000799679
0.000665394
2.97935e-05
9.63855e-08
8.0564e-11
2.25113e-10
3.89833e-13
8.32411e-12
4.37051e-08
3.83938e-05
0.000675882
0.000570228
4.56995e-05
4.85531e-07
1.69778e-09
1.23344e-09
8.57561e-13
1.10533e-10
6.49948e-08
4.67363e-05
0.000582292
0.000496743
6.1062e-05
1.00585e-06
4.00338e-09
1.79504e-09
2.31421e-12
2.88873e-10
1.77961e-07
5.36421e-05
0.000510093
0.000437859
5.76043e-05
1.44005e-06
1.70727e-08
3.49787e-09
1.17972e-11
1.17837e-09
2.6142e-07
5.60108e-05
0.00045277
0.00039014
6.6416e-05
1.9619e-06
1.78851e-08
5.39013e-09
4.90566e-11
2.01826e-09
2.49097e-07
5.41434e-05
0.000407136
0.000350818
6.90091e-05
2.51336e-06
6.45855e-08
6.21566e-09
2.68104e-10
3.35283e-09
2.41985e-07
5.06869e-05
0.000369374
0.000317751
7.38147e-05
3.20672e-06
9.205e-08
9.66889e-09
6.57243e-10
3.347e-09
2.05606e-07
4.67586e-05
0.000338767
0.000289388
7.82512e-05
3.93815e-06
1.26678e-07
1.28286e-08
1.60936e-09
7.65152e-09
1.78425e-07
4.29511e-05
0.000312063
0.000264467
8.11369e-05
5.15722e-06
2.5367e-07
1.85113e-08
1.29433e-09
7.87574e-09
2.07149e-07
3.90484e-05
0.000290533
0.000242051
8.48848e-05
6.43393e-06
3.34497e-07
1.87983e-08
2.32764e-09
1.06215e-08
2.3925e-07
3.51191e-05
0.000270197
0.000221465
8.90628e-05
8.76623e-06
5.49202e-07
5.24253e-08
7.37849e-09
8.41322e-09
2.28171e-07
3.12903e-05
0.000254459
0.000201974
9.43869e-05
1.08826e-05
8.55573e-07
6.46164e-08
1.21179e-08
1.76336e-08
1.82965e-07
2.74751e-05
0.000237485
0.000183292
0.000102485
1.48575e-05
1.40063e-06
1.70601e-07
1.24731e-08
1.34847e-08
1.96473e-07
2.40666e-05
0.000225555
0.000164695
0.000110178
1.84463e-05
2.31614e-06
2.54942e-07
4.74675e-08
3.02748e-08
1.69918e-07
2.05825e-05
0.000209767
0.000146142
0.000121039
2.58778e-05
3.33271e-06
6.36887e-07
6.80544e-08
2.82125e-08
1.54942e-07
1.75403e-05
0.00019967
0.000127332
0.000126986
3.90866e-05
6.16565e-06
8.50829e-07
1.91806e-07
8.36636e-08
1.27665e-07
1.40113e-05
0.000183785
0.000108348
0.000136726
6.2082e-05
1.0966e-05
2.10579e-06
3.01591e-07
8.90472e-08
1.82198e-07
1.13421e-05
0.000168438
8.94198e-05
0.000148761
8.36326e-05
2.039e-05
3.8315e-06
8.79993e-07
3.08536e-07
1.94533e-07
7.8484e-06
0.000150666
7.15443e-05
0.000162221
0.000117157
3.57754e-05
9.43368e-06
2.13544e-06
5.90845e-07
3.4879e-07
6.97757e-06
0.000117937
0.113549
0.0180983
0.0157128
0.0157102
0.0157101
0.015705
0.0157105
0.0157124
0.0180913
0.11347
0.0394497
0.000834971
0.000286883
0.000284854
0.000284263
0.000282011
0.000284259
0.000286427
0.000832853
0.0392877
0.016681
0.000218267
9.35828e-06
1.05443e-05
1.03816e-05
1.06273e-05
1.06807e-05
1.11788e-05
0.000219593
0.0165947
0.00837298
0.000129614
5.77317e-08
1.02104e-07
2.78435e-08
1.06429e-07
1.13579e-07
1.84602e-07
0.000128497
0.00831166
0.00484365
8.08537e-05
4.19142e-08
1.49725e-08
3.90599e-08
2.06814e-08
6.37459e-08
2.94376e-08
8.3838e-05
0.0048054
0.00311201
5.32864e-05
6.3589e-08
1.09336e-08
1.91232e-07
3.2503e-08
4.24281e-08
5.77336e-08
5.87904e-05
0.00309003
0.00215154
4.58154e-05
6.90158e-08
2.84413e-08
2.86441e-07
5.21919e-08
3.24845e-07
6.77308e-08
3.76311e-05
0.00215002
0.00158167
3.52076e-05
7.03056e-08
2.99516e-08
2.54308e-07
5.51327e-08
1.33627e-07
8.1703e-08
3.64535e-05
0.00158416
0.00121791
2.36389e-05
5.4144e-08
3.00253e-08
3.62107e-07
1.68706e-08
1.02037e-07
5.55939e-08
2.68755e-05
0.00122074
0.000972278
1.96263e-05
8.08495e-08
2.6209e-08
3.26425e-07
1.28576e-08
7.65543e-08
5.99551e-08
1.94321e-05
0.000977933
0.000798608
2.15838e-05
8.72463e-08
4.49503e-08
4.1302e-07
2.33691e-08
9.92885e-08
6.31047e-08
1.13806e-05
0.000805534
0.000671843
2.66082e-05
1.51146e-07
9.1764e-08
5.35436e-07
1.11962e-07
9.72322e-08
1.98795e-07
2.21176e-05
0.000678866
0.000575318
4.60471e-05
2.82029e-07
1.38153e-07
6.53295e-07
1.37578e-07
2.52146e-07
4.23948e-07
3.77221e-05
0.000582862
0.00050185
3.54221e-05
8.63662e-07
4.24931e-07
7.67097e-07
2.73029e-07
4.27922e-07
6.18407e-07
4.91184e-05
0.000509093
0.000441703
4.22027e-05
9.50629e-07
3.32898e-07
9.85044e-07
3.36567e-07
6.64801e-07
8.87166e-07
5.65571e-05
0.000450825
0.000393212
4.89427e-05
1.92675e-06
7.70057e-07
1.13865e-06
3.64285e-07
8.59822e-07
1.06367e-06
5.95202e-05
0.00040477
0.000353652
6.29905e-05
2.76834e-06
8.32236e-07
1.23175e-06
4.41215e-07
9.42065e-07
1.35261e-06
5.93562e-05
0.000367044
0.000320658
7.11814e-05
3.41875e-06
8.71137e-07
1.31931e-06
4.88232e-07
1.19645e-06
1.49499e-06
5.61607e-05
0.000336594
0.000292234
7.45747e-05
3.98528e-06
1.28334e-06
1.38923e-06
5.4666e-07
1.2547e-06
1.52947e-06
5.16349e-05
0.00031004
0.000267236
7.89087e-05
4.79912e-06
1.25022e-06
1.49312e-06
8.58291e-07
1.26242e-06
1.85897e-06
4.66067e-05
0.000288591
0.000244688
8.20359e-05
6.20999e-06
1.63891e-06
1.57529e-06
7.9806e-07
1.53148e-06
1.94254e-06
4.16116e-05
0.000268335
0.000223766
8.50902e-05
7.87284e-06
1.56792e-06
1.61288e-06
1.20829e-06
1.41504e-06
2.00459e-06
3.66762e-05
0.000252577
0.000203948
9.16057e-05
1.05126e-05
2.84541e-06
1.59429e-06
1.34054e-06
1.77676e-06
2.10257e-06
3.25329e-05
0.000235851
0.000184805
0.000102344
1.47455e-05
2.87629e-06
1.71436e-06
1.38379e-06
1.66105e-06
1.78398e-06
2.82105e-05
0.0002239
0.000165706
0.000111865
1.98121e-05
4.50401e-06
2.17023e-06
1.8008e-06
1.76541e-06
2.35431e-06
2.46915e-05
0.000208603
0.000146251
0.000124125
2.70139e-05
5.26731e-06
2.5351e-06
1.95879e-06
2.0491e-06
2.18453e-06
2.07622e-05
0.000198743
0.000126453
0.000133868
4.5015e-05
9.21168e-06
3.8108e-06
2.54258e-06
2.58273e-06
2.51035e-06
1.78805e-05
0.000182793
0.000105457
0.000146578
6.98289e-05
1.51002e-05
5.43317e-06
3.40657e-06
3.34254e-06
3.20985e-06
1.46766e-05
0.000170399
8.51379e-05
0.000165889
0.000105183
3.09992e-05
1.04815e-05
5.52303e-06
4.6099e-06
4.37974e-06
1.3743e-05
0.000150884
7.14149e-05
0.000189506
0.000151772
6.31009e-05
2.28617e-05
1.04671e-05
7.60433e-06
6.3136e-06
1.50214e-05
0.000129288
0.113908
0.0205943
0.0180918
0.0180773
0.0180792
0.0180792
0.0180773
0.0180919
0.0205878
0.113833
0.0397318
0.00169379
0.000833095
0.000822218
0.000822231
0.000822337
0.000822266
0.000833423
0.00168712
0.0395847
0.0168796
0.00052794
0.000220957
0.000214705
0.000213987
0.000214043
0.000214082
0.000220665
0.000526659
0.0167758
0.0083621
0.000389468
0.00012738
0.000125643
0.000128581
0.00012783
0.000127395
0.000130001
0.000387234
0.00827925
0.00479896
0.000288981
7.92763e-05
7.68781e-05
7.8823e-05
7.89883e-05
7.88676e-05
8.21191e-05
0.000276303
0.00473399
0.00307714
0.000205986
5.38396e-05
5.17449e-05
5.27109e-05
5.3012e-05
5.27731e-05
5.38351e-05
0.00020094
0.00303697
0.00212694
0.000174285
4.15031e-05
4.4001e-05
4.66034e-05
4.4651e-05
4.45762e-05
4.51986e-05
0.000157474
0.0020989
0.00155827
0.000143052
3.69126e-05
3.28332e-05
3.66723e-05
3.39967e-05
3.28596e-05
3.55527e-05
0.000104886
0.00154983
0.00119875
0.000119853
2.77429e-05
2.21012e-05
2.84846e-05
2.06588e-05
2.31099e-05
2.2959e-05
7.31125e-05
0.00119678
0.00095357
0.000127046
2.43501e-05
1.79531e-05
2.19724e-05
1.62333e-05
1.84206e-05
1.73968e-05
5.22105e-05
0.000956791