/*--------------------------------*- C++ -*----------------------------------*\
| =========                 |                                                 |
| \\      /  F ield         | OpenFOAM: The Open Source CFD Toolbox           |
|  \\    /   O peration     | Version:  4.1                                   |
|   \\  /    A nd           | Web:      www.OpenFOAM.org                      |
|    \\/     M anipulation  |                                                 |
\*---------------------------------------------------------------------------*/
FoamFile
{
    version     2.0;
    format      ascii;
    class       volScalarField;
    location    "200";
    object      nut;
}
// * * * * * * * * * * * * * * * * * * * * * * * * * * * * * * * * * * * * * //

dimensions      [0 2 -1 0 0 0 0];

internalField   nonuniform List<scalar> 
12000
(
0.00382425
0.00374715
0.00373949
0.00373836
0.00373807
0.00373805
0.00373832
0.00373989
0.00375056
0.00382788
0.00225919
0.0022243
0.00222662
0.00222208
0.00222056
0.00222054
0.00222194
0.00222547
0.00222267
0.00225643
0.00146313
0.00144197
0.00143779
0.0014324
0.00143032
0.00143043
0.00143283
0.00143948
0.00144404
0.00146182
0.00102687
0.000995962
0.00101363
0.00100793
0.00100541
0.0010054
0.00100828
0.00101317
0.000986964
0.00102565
0.000774737
0.000751792
0.000776191
0.000772931
0.000770739
0.000771101
0.000773487
0.000778607
0.000750311
0.00077442
0.000616511
0.000606654
0.000625948
0.000623456
0.000621274
0.000620831
0.000623662
0.000626716
0.000601471
0.000616355
0.000510761
0.000511148
0.000522876
0.000520864
0.000519157
0.000520285
0.00052121
0.000526741
0.000513914
0.000511515
0.000435285
0.000439192
0.000451954
0.000449161
0.000446891
0.000447048
0.000449596
0.000450202
0.000444641
0.000436927
0.000380169
0.000387905
0.000395391
0.000392497
0.000391145
0.000389456
0.000393247
0.0003948
0.000391061
0.00038194
0.00033815
0.000347655
0.000352248
0.000350099
0.000348661
0.000348377
0.000351111
0.000352122
0.000348709
0.000340221
0.000305383
0.000316049
0.000319329
0.000317479
0.000316121
0.000316074
0.000317717
0.000319089
0.000316594
0.00030764
0.000279207
0.000290118
0.00029302
0.000291553
0.000290044
0.000290186
0.000292003
0.000293169
0.000289888
0.000281581
0.0002575
0.000267897
0.000271596
0.000270206
0.000269004
0.000269198
0.000270582
0.00027187
0.000268379
0.000260358
0.000239176
0.000249027
0.000253648
0.000252487
0.000251786
0.00025192
0.000252778
0.000254664
0.000250131
0.000242744
0.000223568
0.000233242
0.000238416
0.00023778
0.000236889
0.000237141
0.000238051
0.000240092
0.000234906
0.000228014
0.000210145
0.000219976
0.000225492
0.000225043
0.000224247
0.000224789
0.000225514
0.000227231
0.000222103
0.000215605
0.000198469
0.000208724
0.000214326
0.000213944
0.000213221
0.000213927
0.000214692
0.000215978
0.000211421
0.000205149
0.000188131
0.000199012
0.000204482
0.00020423
0.000203786
0.000204585
0.000205455
0.000206214
0.000202321
0.000196244
0.000178746
0.000190248
0.00019573
0.000195833
0.000195665
0.000196394
0.000197405
0.000198308
0.000194663
0.000188728
0.000169989
0.000182494
0.000188032
0.000188374
0.000188513
0.00018939
0.000190466
0.000191453
0.00018808
0.000182266
0.000161499
0.000175022
0.000181135
0.000181842
0.000182138
0.00018301
0.000184262
0.000185742
0.000182603
0.000176912
0.00015295
0.000168002
0.000174674
0.000175815
0.000176492
0.000177652
0.000178962
0.000180617
0.000177844
0.000172282
0.000143861
0.000160532
0.000168512
0.00017026
0.000171103
0.000172414
0.00017404
0.000176264
0.000174067
0.000168719
0.000133571
0.000152582
0.000162401
0.000165143
0.000166511
0.000168184
0.000169861
0.000172428
0.00017071
0.000165637
0.000121072
0.00014313
0.000155945
0.000159871
0.000161546
0.000163572
0.000165934
0.000169202
0.000168358
0.000163879
0.000103631
0.000131456
0.00014851
0.000154783
0.000157488
0.000159981
0.000162349
0.000166129
0.000166129
0.000162111
7.74362e-05
0.000114748
0.000138806
0.000147965
0.000152002
0.000155368
0.000158859
0.000164002
0.000164807
0.000163342
6.18952e-05
9.37577e-05
0.000124995
0.000140697
0.000146831
0.000151277
0.000155016
0.000160608
0.000164475
0.000161267
7.03931e-05
8.49807e-05
0.000101911
0.000118907
0.000137066
0.000145502
0.000149577
0.000159705
0.000162249
0.000169148
9.01172e-05
0.000102584
0.000102962
0.000115013
0.000109005
0.000126678
0.000142544
0.000149435
0.000164003
0.000166399
0.00374716
5.22273e-05
3.91591e-05
3.91068e-05
3.9123e-05
3.9123e-05
3.9107e-05
3.9159e-05
5.21471e-05
0.00374356
0.00222428
3.11241e-06
8.59735e-07
8.43411e-07
8.44739e-07
8.44816e-07
8.43438e-07
8.60194e-07
3.09617e-06
0.00219976
0.00144193
8.71766e-07
1.55709e-07
1.45908e-07
1.45353e-07
1.45103e-07
1.45521e-07
1.52493e-07
8.51688e-07
0.00141831
0.000995756
8.41576e-07
1.15205e-07
1.16982e-07
1.18198e-07
1.19052e-07
1.17651e-07
1.20869e-07
1.04454e-06
0.000960132
0.000751599
1.1421e-06
1.02025e-07
1.00385e-07
1.01157e-07
1.01851e-07
1.01253e-07
1.06229e-07
1.34658e-06
0.000721992
0.000606296
1.41866e-06
1.0757e-07
1.05842e-07
1.07153e-07
1.02702e-07
1.07187e-07
1.01822e-07
1.03083e-06
0.000577564
0.000510934
2.20687e-06
1.07306e-07
1.25432e-07
1.28873e-07
1.62411e-07
1.2838e-07
1.89771e-07
8.40987e-07
0.000493832
0.000438625
3.12339e-06
1.26333e-07
1.47855e-07
1.49713e-07
3.34737e-07
1.68903e-07
1.87108e-07
8.64124e-07
0.000429991
0.000387436
5.63789e-06
1.29898e-07
1.26916e-07
1.20493e-07
2.55777e-07
1.17201e-07
1.45858e-07
9.68927e-07
0.000380725
0.000347098
1.08879e-05
1.91118e-07
2.09492e-07
1.64507e-07
2.20914e-07
2.3408e-07
1.65127e-07
2.25901e-06
0.000342304
0.000315375
2.38686e-05
2.32612e-06
5.73551e-07
3.06502e-07
1.29625e-07
7.07005e-07
1.29515e-07
7.73796e-06
0.000312917
0.000289234
4.19089e-05
1.1717e-05
3.58866e-06
9.9144e-07
9.11712e-07
4.56827e-06
1.28766e-06
1.69665e-05
0.000288184
0.000266826
6.62088e-05
3.43162e-05
3.851e-06
5.93391e-06
3.02295e-06
5.58963e-06
3.46555e-06
3.31237e-05
0.000267827
0.000247805
9.13391e-05
2.37821e-05
7.66095e-06
5.65096e-06
7.29735e-06
9.80856e-06
7.02323e-06
5.13631e-05
0.000250296
0.000231813
0.000112595
4.60633e-05
1.74372e-05
8.43526e-06
1.07928e-05
1.90588e-05
1.26309e-05
7.07754e-05
0.000235361
0.000218233
0.000124673
4.21946e-05
2.57199e-05
1.71336e-05
1.51318e-05
2.847e-05
1.98709e-05
8.64293e-05
0.000222731
0.000206597
0.000132845
3.26381e-05
3.08242e-05
2.81814e-05
1.66638e-05
3.50665e-05
2.96154e-05
9.43898e-05
0.000212105
0.000196426
0.000133319
3.71036e-05
3.5529e-05
3.64347e-05
2.02036e-05
3.89114e-05
3.62173e-05
9.90261e-05
0.000203098
0.000187157
0.000136067
3.90771e-05
3.71991e-05
3.82531e-05
2.37218e-05
4.06128e-05
4.18302e-05
0.000100523
0.000195252
0.000178836
0.000144925
4.16899e-05
3.79494e-05
4.05542e-05
2.8823e-05
4.2604e-05
4.57373e-05
0.000100319
0.000188599
0.00017079
0.00015461
4.31704e-05
4.25818e-05
4.47282e-05
3.23155e-05
4.43874e-05
4.86975e-05
9.85541e-05
0.000182497
0.000163168
0.000159218
4.06359e-05
4.44453e-05
4.84659e-05
3.70926e-05
4.69832e-05
5.22548e-05
9.64863e-05
0.000177505
0.00015526
0.000158655
4.7155e-05
4.60605e-05
4.72945e-05
4.14182e-05
4.94697e-05
5.02329e-05
9.3566e-05
0.00017245
0.000146984
0.000160775
6.66233e-05
5.01814e-05
5.22547e-05
4.62471e-05
5.13817e-05
5.4692e-05
9.06121e-05
0.000168809
0.000137965
0.000162154
7.96864e-05
5.01391e-05
5.04845e-05
4.81383e-05
5.34388e-05
5.18996e-05
8.70003e-05
0.000164188
0.000127234
0.00016932
0.000107672
5.77683e-05
5.40452e-05
5.303e-05
5.67831e-05
5.37681e-05
8.28144e-05
0.000161703
0.000114252
0.000177985
0.000127832
6.84887e-05
5.41079e-05
5.50072e-05
6.03438e-05
5.94706e-05
8.36753e-05
0.000156151
9.78878e-05
0.000194217
0.000168266
9.39952e-05
7.05832e-05
6.30424e-05
6.48386e-05
6.57615e-05
8.3496e-05
0.000154644
8.57196e-05
0.000206689
0.000195246
0.000127513
8.42001e-05
7.0836e-05
7.18804e-05
7.11836e-05
8.88748e-05
0.000152666
8.67787e-05
0.000231718
0.000229732
0.000193246
0.000121131
9.35492e-05
8.37161e-05
8.1783e-05
9.18736e-05
0.000149067
0.0037395
3.91627e-05
2.88069e-05
2.8834e-05
2.8802e-05
2.88001e-05
2.88265e-05
2.88078e-05
3.9111e-05
0.00373123
0.00222656
8.60456e-07
1.24407e-07
1.25344e-07
1.23208e-07
1.22288e-07
1.28373e-07
1.23874e-07
8.55138e-07
0.00219564
0.00143799
1.54622e-07
4.29915e-10
5.00296e-10
4.92573e-10
3.85101e-10
5.80533e-10
3.76086e-10
1.53913e-07
0.00141196
0.00101273
1.18818e-07
1.74257e-12
1.65102e-13
1.56616e-12
1.02176e-12
1.85582e-12
1.09797e-12
1.15108e-07
0.000983502
0.000776083
1.05292e-07
9.442e-12
2.82768e-12
1.27303e-11
2.23838e-11
1.0178e-11
2.53118e-11
1.01989e-07
0.000750744
0.000624774
1.02017e-07
2.41771e-10
3.58597e-11
1.49515e-10
9.28607e-11
6.26565e-11
2.55841e-10
1.04509e-07
0.000607819
0.000524469
1.75026e-07
2.61568e-10
8.076e-10
2.0738e-10
1.31679e-10
1.0379e-11
1.59358e-10
1.21908e-07
0.000510415
0.000447788
1.50575e-07
2.96976e-10
1.66371e-09
8.28852e-11
1.40129e-10
4.22618e-11
1.24629e-10
1.30781e-07
0.000442443
0.000393628
1.46193e-07
1.07344e-10
1.52847e-09
1.5673e-10
3.11758e-10
1.09215e-10
6.72704e-11
9.07901e-08
0.000390146
0.000350992
1.2972e-07
4.17127e-11
1.78217e-09
1.60965e-10
1.56461e-11
2.0384e-10
5.61779e-11
1.78759e-07
0.000350674
0.000318232
1.3431e-07
1.43613e-10
4.32586e-09
3.81904e-06
1.78611e-06
5.27091e-10
1.19564e-10
1.77806e-06
0.000319092
0.000291434
1.68491e-06
1.07794e-09
1.73262e-08
9.02981e-12
7.33084e-10
1.43857e-08
2.8448e-10
1.09569e-05
0.000293627
0.000270248
2.65177e-06
7.09718e-09
8.60693e-08
3.15217e-08
4.52178e-09
7.60231e-08
2.02106e-09
2.41417e-05
0.000272612
0.000252438
9.59277e-06
3.26866e-08
2.2341e-07
3.9783e-08
7.67413e-08
1.75834e-07
1.11989e-08
7.70868e-05
0.000254846
0.000237099
2.30556e-05
8.69401e-08
9.28227e-07
6.82044e-08
4.10209e-08
2.89062e-07
4.30938e-08
4.76274e-05
0.000239409
0.000223575
3.44299e-05
2.98015e-07
8.13647e-07
9.81101e-08
1.04861e-07
3.70463e-07
1.63391e-07
3.59653e-05
0.000226367
0.000211756
4.47724e-05
7.00108e-07
1.3774e-06
2.44998e-07
2.65101e-07
5.58068e-07
2.86357e-07
2.63173e-05
0.000214982
0.0002013
5.61432e-05
1.48302e-06
1.3524e-06
3.07607e-07
1.51012e-07
6.62775e-07
3.44803e-07
2.91341e-05
0.000205555
0.00019211
6.40996e-05
2.60226e-06
9.44981e-07
4.94363e-07
1.91029e-07
1.00978e-06
6.93784e-07
2.5506e-05
0.000197058
0.000183461
7.26236e-05
4.21473e-06
1.23347e-06
5.77913e-07
1.80222e-07
1.16514e-06
9.72439e-07
3.03396e-05
0.00019018
0.00017594
8.70965e-05
5.51887e-06
1.36667e-06
9.75096e-07
2.61223e-07
1.29388e-06
1.34573e-06
3.2939e-05
0.000183593
0.000168042
8.89152e-05
8.1553e-06
1.96785e-06
6.71032e-07
4.47505e-07
1.25115e-06
1.48697e-06
3.30632e-05
0.000178463
0.000160856
0.000115827
1.13559e-05
1.98662e-06
1.91364e-06
4.76831e-07
1.93047e-06
1.49233e-06
3.17487e-05
0.000172724
0.000153725
0.000127352
1.60598e-05
3.04541e-06
1.31523e-06
8.46415e-07
1.97027e-06
2.0949e-06
2.91852e-05
0.000168652
0.000145844
0.000116932
2.09677e-05
3.79994e-06
1.52563e-06
1.21884e-06
1.91018e-06
1.97496e-06
2.60424e-05
0.000162828
0.000136919
0.0001252
2.99719e-05
6.66183e-06
2.13625e-06
1.65754e-06
2.40041e-06
2.1792e-06
2.29567e-05
0.000159366
0.000127177
0.000134022
4.84677e-05
9.20518e-06
2.88365e-06
2.12363e-06
2.47974e-06
2.4877e-06
1.92061e-05
0.000151797
0.000116134
0.000150343
7.90207e-05
1.89766e-05
6.26001e-06
3.5727e-06
3.33708e-06
3.24597e-06
1.66693e-05
0.000149526
0.000104158
0.000167168
0.00011406
3.42724e-05
9.68198e-06
4.32489e-06
4.10523e-06
4.22022e-06
1.37704e-05
0.000134752
9.42926e-05
0.000190174
0.000159189
7.16378e-05
2.44958e-05
1.04794e-05
6.68674e-06
5.73588e-06
1.30407e-05
0.000142927
0.00373837
3.91096e-05
2.8833e-05
2.88192e-05
2.88287e-05
2.8821e-05
2.88143e-05
2.88338e-05
3.90584e-05
0.00372944
0.00222203
8.44007e-07
1.24088e-07
1.23451e-07
1.22044e-07
1.25365e-07
1.27285e-07
1.23017e-07
8.39394e-07
0.00219128
0.00143242
1.45993e-07
5.77186e-10
4.90187e-10
5.68902e-10
5.39393e-10
5.09371e-10
6.23318e-10
1.46476e-07
0.00140707
0.00100761
1.18009e-07
3.59585e-13
6.46523e-13
2.18642e-13
1.24384e-12
2.38115e-13
4.33363e-12
1.14978e-07
0.00098101
0.000772648
1.01552e-07
3.15574e-13
1.23128e-16
2.31016e-19
2.1666e-15
1.0914e-17
1.8826e-12
9.76467e-08
0.000750712
0.000623138
1.08002e-07
1.31362e-11
1.37769e-18
1.10157e-23
8.90808e-18
1.67877e-19
6.35754e-11
1.04176e-07
0.000608202
0.000520306
1.29517e-07
4.25112e-11
3.80139e-18
3.46598e-17
7.33408e-15
4.02362e-17
8.7252e-10
1.20796e-07
0.000511073
0.000449047
1.70551e-07
5.47947e-10
1.38868e-17
4.64569e-15
8.56931e-14
2.80039e-16
1.45215e-08
1.56651e-07
0.000442857
0.0003924
1.34601e-07
1.84174e-09
5.07154e-17
2.30185e-17
6.01113e-14
5.34363e-16
1.09778e-08
1.0323e-07
0.000389115
0.000349879
2.44827e-07
1.62309e-09
1.98741e-13
7.94959e-16
4.5646e-14
2.13953e-15
2.51089e-08
1.99957e-07
0.000349139
0.000316941
7.99512e-07
7.24189e-09
1.1394e-13
4.00046e-13
3.70586e-14
9.2942e-14
9.76049e-08
1.02358e-06
0.000317231
0.000290257
5.03782e-06
5.55753e-08
6.17501e-12
3.44867e-13
1.76064e-13
2.17954e-11
1.79295e-07
7.30184e-06
0.000292276
0.00026897
1.54182e-05
1.57932e-07
3.32528e-11
6.19261e-11
1.64075e-12
1.19996e-10
1.65964e-07
7.46001e-06
0.000271439
0.000251198
2.49076e-05
4.04646e-07
2.68795e-09
4.91796e-12
1.62865e-11
4.30295e-10
2.34797e-07
1.59167e-05
0.000254414
0.000235912
3.83859e-05
8.54546e-07
4.51448e-09
1.55572e-11
5.67006e-11
1.14973e-09
2.54647e-07
2.14215e-05
0.000239682
0.000222367
4.30107e-05
1.41639e-06
3.08401e-08
2.21844e-10
8.12083e-11
1.61104e-09
2.81049e-07
2.37399e-05
0.000227087
0.000210782
5.32072e-05
1.62157e-06
1.54294e-08
1.63769e-09
4.99452e-10
3.08766e-09
3.13958e-07
2.66506e-05
0.00021595
0.000200346
6.14338e-05
2.79177e-06
1.65122e-07
1.72403e-11
2.37925e-10
3.29147e-09
3.46639e-07
2.99327e-05
0.000206643
0.000191189
6.86704e-05
4.30456e-06
1.75259e-07
4.09367e-08
7.86358e-10
8.29395e-09
4.35314e-07
3.20795e-05
0.000198171
0.000182815
8.02838e-05
6.20254e-06
4.06273e-07
1.77996e-08
4.49978e-10
8.94598e-09
4.27511e-07
3.33326e-05
0.000191345
0.000175282
8.91613e-05
6.7977e-06
4.3371e-07
7.57704e-08
9.53547e-10
9.16948e-09
4.89221e-07
3.2804e-05
0.000184559
0.000167382
8.742e-05
9.68338e-06
6.94799e-07
5.37208e-08
1.93067e-09
8.84505e-09
5.09423e-07
3.14602e-05
0.000179405
0.000160232
0.000110806
1.42576e-05
1.23954e-06
3.88774e-08
2.61511e-09
1.45337e-08
4.30546e-07
2.91279e-05
0.00017342
0.000153063
0.000123327
1.83633e-05
1.7262e-06
4.80075e-07
2.18141e-08
2.22083e-08
3.56142e-07
2.61973e-05
0.000169303
0.000145464
0.000126164
2.09849e-05
3.20548e-06
2.65303e-07
1.82588e-08
1.21508e-08
3.29685e-07
2.30289e-05
0.00016335
0.000136748
0.000123259
3.08732e-05
3.98323e-06
1.23538e-06
1.59705e-07
8.0198e-08
2.28486e-07
1.94784e-05
0.000159508
0.000127467
0.000128405
4.19533e-05
8.02011e-06
9.88222e-07
1.99627e-07
7.99268e-08
2.63889e-07
1.58338e-05
0.0001527
0.000117089
0.000137704
6.69047e-05
1.26005e-05
3.0523e-06
6.30813e-07
2.66831e-07
2.37744e-07
1.23159e-05
0.000146956
0.000105942
0.00015333
9.2714e-05
2.27336e-05
4.28563e-06
9.1682e-07
2.60077e-07
2.2421e-07
8.46378e-06
0.000139308
9.33753e-05
0.000167094
0.000131779
4.28641e-05
1.16045e-05
2.9837e-06
9.78145e-07
4.40436e-07
5.58687e-06
0.000117586
0.00373808
3.91255e-05
2.88366e-05
2.88247e-05
2.88302e-05
2.88314e-05
2.88242e-05
2.88363e-05
3.90737e-05
0.00372912
0.0022205
8.44987e-07
1.24678e-07
1.21491e-07
1.24845e-07
1.23997e-07
1.26117e-07
1.25238e-07
8.40635e-07
0.00218985
0.00143041
1.44821e-07
5.21217e-10
5.87816e-10
5.56128e-10
4.51543e-10
4.43571e-10
5.06523e-10
1.46333e-07
0.00140519
0.00100495
1.20051e-07
8.38621e-13
3.33862e-12
1.21341e-12
1.3691e-13
1.00437e-13
7.80243e-13
1.17308e-07
0.00097899
0.000770318
1.02947e-07
2.41769e-12
2.33695e-18
2.1236e-15
8.5813e-18
7.78211e-18
1.61554e-11
1.00189e-07
0.000748865
0.000620727
1.104e-07
4.93209e-11
3.05003e-23
1.74607e-18
6.89322e-22
9.25494e-23
1.94432e-10
1.06516e-07
0.000606109
0.000518909
1.36795e-07
1.39946e-10
8.5041e-16
2.34712e-20
7.23538e-23
1.55089e-19
3.11976e-11
1.25707e-07
0.000509899
0.000445554
1.43104e-07
3.71606e-10
1.67859e-15
6.19953e-20
5.70191e-20
5.47867e-18
1.98964e-11
1.46133e-07
0.000439851
0.000390481
1.43577e-07
1.16745e-09
3.081e-15
2.89175e-18
6.19032e-19
1.67083e-17
2.32758e-11
9.07392e-08
0.000387246
0.000348004
2.15336e-07
1.00092e-09
1.49814e-13
8.29784e-19
1.40503e-19
1.39606e-15
1.26489e-10
1.68852e-07
0.000347442
0.000315589
6.62535e-07
4.67944e-08
1.39323e-11
1.75588e-16
1.50399e-19
4.39855e-15
1.46735e-09
1.46366e-06
0.000315978
0.000288889
2.52113e-06
8.20905e-08
1.23247e-10
2.72149e-14
9.31408e-18
3.03798e-13
1.03873e-08
7.19674e-06
0.000291079
0.00026775
9.48826e-06
1.72464e-07
1.20797e-10
4.9375e-13
1.7058e-15
1.32472e-12
1.14075e-08
1.00715e-05
0.000270624
0.000249845
1.28805e-05
4.07573e-07
2.53996e-09
3.43006e-12
8.84504e-15
2.33104e-11
2.49116e-08
1.81551e-05
0.000253282
0.000234581
2.29169e-05
1.07715e-06
3.05597e-09
6.10986e-09
9.43083e-10
7.68552e-11
5.578e-08
1.92133e-05
0.000238281
0.00022135
3.54348e-05
2.18714e-06
4.35932e-08
4.61476e-10
1.02469e-10
2.11689e-10
1.20819e-07
2.62851e-05
0.000225659
0.000209954
4.57124e-05
3.43046e-06
3.31276e-08
2.16821e-10
3.03926e-13
2.1444e-10
1.58756e-07
3.10136e-05
0.000214701
0.00019978
5.14904e-05
3.27858e-06
8.76539e-08
1.15792e-09
2.11866e-11
5.43771e-10
2.95679e-07
3.33595e-05
0.000205593
0.000190823
6.10345e-05
4.18257e-06
8.01344e-08
7.13879e-10
2.72407e-12
5.0098e-10
2.917e-07
3.39874e-05
0.000197225
0.000182449
6.60334e-05
5.09355e-06
1.83817e-07
7.48943e-09
2.17265e-10
5.84937e-10
3.39755e-07
3.40685e-05
0.000190451
0.000174575
6.74379e-05
6.73422e-06
2.38278e-07
3.01215e-09
1.53632e-09
8.25665e-10
4.1527e-07
3.33524e-05
0.000183595
0.000166978
7.86537e-05
8.86398e-06
4.56185e-07
4.56806e-08
3.22823e-08
1.03039e-09
4.55532e-07
3.25066e-05
0.000178442
0.000159612
8.6882e-05
1.21049e-05
9.09165e-07
8.24651e-08
3.71753e-09
2.38062e-09
4.46914e-07
3.07918e-05
0.000172387
0.000152098
9.48093e-05
1.64767e-05
1.37985e-06
1.74795e-07
1.13451e-08
4.05263e-09
4.39796e-07
2.88193e-05
0.000168337
0.000144461
0.000105655
1.99229e-05
3.08041e-06
3.13867e-07
4.7068e-08
1.61364e-09
3.6949e-07
2.58871e-05
0.000162425
0.000135932
0.00011372
2.57915e-05
3.1847e-06
6.54773e-07
5.09249e-08
4.10874e-08
3.09804e-07
2.26876e-05
0.000158827
0.000126648
0.000124458
4.04529e-05
7.99125e-06
9.5276e-07
3.51554e-07
3.44713e-08
2.46721e-07
1.88134e-05
0.000151854
0.000116025
0.000134437
6.51574e-05
1.18727e-05
2.32911e-06
2.65637e-07
7.68703e-08
1.61398e-07
1.4617e-05
0.000147327
0.000104249
0.000151656
9.07397e-05
2.21165e-05
4.10694e-06
1.37917e-06
3.14313e-07
2.70388e-07
1.07084e-05
0.000137282
9.03233e-05
0.000164523
0.00013023
4.2528e-05
1.09958e-05
2.19578e-06
4.39544e-07
2.40214e-07
6.67972e-06
0.000124321
0.00373806
3.91257e-05
2.88278e-05
2.8818e-05
2.88264e-05
2.88323e-05
2.88298e-05
2.8802e-05
3.90743e-05
0.00372914
0.00222048
8.44875e-07
1.2779e-07
1.26077e-07
1.25881e-07
1.24587e-07
1.213e-07
1.23325e-07
8.41286e-07
0.0021899
0.00143054
1.44474e-07
4.44247e-10
5.7008e-10
5.49277e-10
4.37434e-10
6.19428e-10
5.09064e-10
1.46351e-07
0.00140544
0.00100509
1.19732e-07
6.25228e-13
1.30597e-12
6.76477e-13
1.5542e-13
2.56046e-13
1.59538e-12
1.19696e-07
0.000978878
0.000770503
1.02927e-07
3.49918e-11
2.44271e-15
4.98934e-17
6.46282e-18
4.76884e-20
1.76359e-11
1.02787e-07
0.00074916
0.000620707
1.10643e-07
8.25822e-11
8.69708e-18
5.05689e-22
7.22499e-22
1.83089e-22
3.74948e-10
1.01138e-07
0.000605435
0.00051902
1.39481e-07
1.3852e-10
4.57756e-19
4.69311e-21
2.80975e-19
8.83084e-18
1.70828e-09
1.86962e-07
0.000511483
0.000445506
1.43239e-07
2.26559e-10
2.51138e-18
1.93284e-17
2.25701e-19
2.0035e-16
6.33552e-10
1.66876e-07
0.000437655
0.0003901
1.59176e-07
1.30532e-10
4.71109e-19
2.77508e-18
3.24843e-19
2.94565e-18
2.32532e-09
1.71903e-07
0.000386386
0.000347901
2.20382e-07
6.88326e-12
8.33278e-19
1.60823e-18
7.10603e-19
8.94195e-19
3.21535e-09
1.83263e-07
0.000345936
0.000315007
5.50983e-07
7.41084e-06
1.78567e-18
1.51143e-14
8.0868e-19
1.64264e-18
7.16292e-09
1.46126e-07
0.000314825
0.000288755
2.67103e-06
8.00555e-09
1.94834e-16
2.72117e-15
1.27603e-18
5.22234e-17
9.6276e-09
1.21024e-06
0.000290002
0.000267851
1.06203e-05
7.14093e-08
8.96635e-15
2.69956e-14
1.56783e-18
3.36641e-17
3.48001e-08
4.17744e-06
0.000269845
0.000249997
1.22377e-05
2.02298e-07
1.61077e-11
1.28925e-15
3.34384e-18
8.96302e-16
3.31363e-08
1.06204e-05
0.000252764
0.000234805
1.77258e-05
4.73204e-07
2.49273e-10
8.91903e-14
5.55789e-18
4.07542e-14
8.21245e-08
1.85836e-05
0.000238183
0.000221547
2.88647e-05
1.9573e-07
3.2946e-09
6.72754e-13
6.90215e-17
1.87261e-12
6.08126e-08
2.48144e-05
0.000225764
0.000209911
4.04086e-05
4.90549e-07
2.72246e-09
3.50316e-11
7.41466e-14
1.61967e-10
2.85914e-07
2.77858e-05
0.000214937
0.000199657
4.68169e-05
1.09013e-06
4.3779e-10
2.686e-11
2.197e-14
2.88832e-11
2.51787e-07
2.94483e-05
0.000205849
0.000190631
5.51721e-05
1.56044e-06
6.35805e-09
5.00052e-10
8.77928e-12
2.96875e-16
1.48895e-07
2.98283e-05
0.000197506
0.000182321
6.01803e-05
2.83552e-06
4.59273e-08
4.88887e-11
2.86438e-11
3.5464e-11
1.6161e-07
2.93283e-05
0.000190695
0.000174468
6.79483e-05
4.48315e-06
7.14633e-08
4.0667e-09
1.38236e-10
2.23593e-10
2.12992e-07
2.80074e-05
0.000183809
0.000166992
7.73576e-05
6.7829e-06
2.59203e-07
1.18815e-08
6.18183e-10
2.03523e-10
2.99242e-07
2.63638e-05
0.000178581
0.000159579
8.57971e-05
9.17082e-06
4.95272e-07
2.58884e-08
3.22969e-09
1.66009e-10
2.28223e-07
2.40863e-05
0.000172403
0.000152044
9.69366e-05
1.45338e-05
1.22373e-06
1.52752e-07
9.12475e-09
1.14601e-09
1.50885e-07
2.19882e-05
0.000168183
0.000144328
0.000107927
1.82181e-05
2.03944e-06
1.86112e-07
2.67902e-08
6.22329e-07
1.18205e-07
1.91643e-05
0.000162021
0.000136062
0.000118784
2.46415e-05
3.19224e-06
5.31068e-07
8.0342e-08
2.29168e-08
8.57662e-08
1.69288e-05
0.000158241
0.000126836
0.000127496
4.1294e-05
7.04239e-06
8.0924e-07
1.14478e-07
6.29431e-08
9.17606e-08
1.36852e-05
0.000150517
0.000116292
0.00013727
6.84345e-05
1.15214e-05
2.09834e-06
4.2468e-07
1.11211e-07
1.0329e-07
1.12976e-05
0.000147668
0.000104622
0.000153688
9.1925e-05
2.44882e-05
4.29764e-06
7.39134e-07
1.28099e-07
1.32065e-07
7.7947e-06
0.000134907
9.086e-05
0.000166315
0.000133107
4.0951e-05
1.08442e-05
2.80139e-06
7.34301e-07
1.163e-07
5.85249e-06
0.00012318
0.00373834
3.91099e-05
2.88337e-05
2.88214e-05
2.88258e-05
2.87903e-05
2.8825e-05
2.87949e-05
3.90588e-05
0.00372948
0.00222188
8.43721e-07
1.24451e-07
1.20557e-07
1.24451e-07
1.21134e-07
1.20676e-07
1.23454e-07
8.40244e-07
0.00219138
0.00143304
1.44527e-07
5.57874e-10
5.61014e-10
4.37709e-10
4.76286e-10
6.06637e-10
5.16428e-10
1.46815e-07
0.00140782
0.00100759
1.19795e-07
2.17451e-13
4.13249e-12
1.67178e-13
6.54237e-13
2.51498e-12
1.61436e-12
1.18152e-07
0.000981949
0.000773311
1.03135e-07
7.70172e-13
3.01839e-17
6.41994e-18
1.49225e-18
2.46729e-16
1.6973e-11
1.02317e-07
0.000751461
0.000622292
1.02547e-07
6.48767e-12
3.94492e-21
1.40237e-16
2.15344e-22
3.28441e-22
3.18421e-10
1.08596e-07
0.000608844
0.000522792
1.96102e-07
1.5219e-10
4.82704e-14
1.15063e-14
4.29546e-23
4.97024e-19
4.47683e-10
1.25293e-07
0.000511291
0.000445284
1.89516e-07
7.86403e-10
2.47574e-12
2.47924e-12
8.21064e-22
2.18235e-18
2.80112e-09
1.62836e-07
0.000443608
0.000391044
1.98436e-07
1.58409e-09
1.02355e-11
1.90249e-11
7.08611e-21
2.13427e-17
4.93668e-10
1.19567e-07
0.00038924
0.000348929
2.54531e-07
2.89594e-09
6.05807e-12
2.21912e-11
1.64089e-20
3.83101e-16
7.71894e-10
1.75118e-07
0.000348835
0.000316057
1.83774e-07
1.52954e-09
1.97277e-08
8.1409e-11
9.92554e-19
2.01815e-15
1.45397e-09
8.35071e-07
0.000317093
0.000289829
1.5328e-06
2.02286e-09
8.53924e-13
1.45274e-10
7.80552e-17
2.3058e-15
1.2433e-08
3.99525e-06
0.000291947
0.000268701
6.28157e-06
6.23396e-08
2.82629e-10
3.05548e-10
4.03525e-16
1.13096e-12
3.48318e-08
9.44491e-06
0.00027127
0.000250862
1.74973e-05
2.37258e-07
7.99096e-10
7.12413e-10
4.35639e-15
5.49368e-12
3.2493e-07
1.79766e-05
0.000254
0.000235562
2.1417e-05
4.94313e-07
8.76682e-09
1.54161e-09
1.79982e-13
2.08293e-10
3.17552e-07
2.66468e-05
0.000239221
0.000222351
3.57764e-05
9.18615e-07
6.03571e-09
4.49694e-09
4.5966e-12
6.73807e-10
3.48974e-07
3.23002e-05
0.000226729
0.000210661
4.40232e-05
1.41593e-06
4.91865e-08
3.47086e-09
2.54937e-10
1.53306e-09
2.96779e-07
3.52465e-05
0.000215899
0.000200337
5.48023e-05
2.19804e-06
1.22331e-07
7.90491e-09
7.94637e-10
1.17007e-09
3.35093e-07
3.61146e-05
0.000206773
0.000191206
6.50383e-05
2.96923e-06
6.71705e-08
2.59796e-08
1.77334e-09
7.35149e-09
9.31123e-08
3.58929e-05
0.00019848
0.000182822
7.02439e-05
4.25103e-06
2.6103e-07
1.28229e-08
8.89778e-10
7.67888e-09
1.32261e-07
3.4543e-05
0.000191638
0.000174972
7.58713e-05
5.74326e-06
2.51942e-07
1.56508e-08
3.23588e-09
1.42783e-08
1.84498e-07
3.26146e-05
0.000184871
0.000167459
8.30873e-05
9.12224e-06
5.60701e-07
5.18488e-08
6.74802e-09
5.89954e-09
1.93924e-07
3.01929e-05
0.000179643
0.000159988
9.05477e-05
1.16086e-05
9.43189e-07
7.66393e-08
1.53712e-08
2.45764e-08
1.50064e-07
2.76157e-05
0.000173531
0.000152491
0.000101173
1.63086e-05
1.59153e-06
2.06583e-07
1.30247e-08
1.41634e-08
2.05352e-07
2.50197e-05
0.00016933
0.000144841
0.000111175
2.04058e-05
2.78178e-06
3.45749e-07
6.93058e-08
3.97162e-08
1.79984e-07
2.23676e-05
0.000163286
0.000136439
0.000121232
2.92068e-05
3.79968e-06
8.25836e-07
9.31292e-08
3.06769e-08
1.6687e-07
1.95581e-05
0.00015879
0.000127292
0.000129065
4.52257e-05
7.33066e-06
1.0589e-06
2.63067e-07
1.15428e-07
1.37926e-07
1.62812e-05
0.000154545
0.000117157
0.000141724
7.33434e-05
1.36326e-05
2.61145e-06
3.68068e-07
1.11917e-07
2.24629e-07
1.3144e-05
0.000140621
0.000106166
0.000156597
9.68279e-05
2.5877e-05
4.9641e-06
1.09847e-06
3.7797e-07
2.32069e-07
9.08876e-06
0.000146178
9.41132e-05
0.000172019
0.000139897
4.58992e-05
1.27426e-05
2.81829e-06
7.40319e-07
3.97393e-07
6.82396e-06
9.85375e-05
0.00373991
3.91626e-05
2.88099e-05
2.88334e-05
2.88369e-05
2.88004e-05
2.88351e-05
2.88068e-05
3.91122e-05
0.00373122
0.0022254
8.6065e-07
1.233e-07
1.2607e-07
1.2532e-07
1.23153e-07
1.24209e-07
1.2512e-07
8.56309e-07
0.00219519
0.00143965
1.51106e-07
3.5318e-10
5.06613e-10
4.94261e-10
5.14624e-10
5.92465e-10
5.54458e-10
1.53052e-07
0.00141381
0.00101295
1.23021e-07
8.24656e-13
1.66881e-12
1.71219e-13
1.70171e-12
2.5605e-13
2.78174e-12
1.20638e-07
0.00098667
0.000777128
1.09981e-07
3.71537e-11
1.73081e-11
3.52399e-12
1.3696e-11
4.68209e-13
8.37182e-12
1.18754e-07
0.000754141
0.000627103
1.15194e-07
2.61972e-10
6.02531e-11
1.11606e-10
3.68167e-10
2.37312e-12
5.43582e-10
1.33367e-07
0.000612027
0.000524082
1.46709e-07
1.03077e-10
5.05495e-10
1.33875e-09
4.13374e-10
1.83178e-10
6.65713e-10
1.18977e-07
0.000513749
0.000450806
1.71283e-07
3.34017e-10
5.79032e-10
1.38075e-09
2.46723e-09
1.31517e-10
4.38704e-10
2.68582e-07
0.000445385
0.000393989
1.42967e-07
2.78279e-10
1.51397e-09
4.54063e-09
5.5726e-10
1.34925e-10
1.72385e-10
2.01907e-07
0.000390341
0.000351473
2.02427e-07
4.41563e-10
1.92e-09
7.74639e-09
5.25289e-10
1.48553e-10
3.97045e-10
1.7986e-07
0.000350104
0.00031813
4.82714e-07
9.08432e-10
8.47632e-09
2.55523e-08
2.23835e-09
5.77974e-10
6.31501e-10
1.08731e-07
0.000318235
0.000291223
1.08619e-06
1.43261e-09
3.06835e-08
5.57028e-08
6.36213e-08
9.53163e-10
1.05476e-08
8.47811e-07
0.000292567
0.000269996
4.64312e-06
8.84265e-09
2.29826e-08
1.20317e-07
6.67945e-08
1.20186e-08
7.90743e-08
4.46949e-06
0.000271468
0.000251563
3.94458e-06
7.05705e-08
3.31164e-07
2.38932e-07
2.12412e-07
5.81471e-08
1.42642e-07
1.2175e-05
0.000253763
0.000237507
8.16407e-06
9.83257e-08
6.23991e-08
3.57124e-07
2.53132e-07
2.06216e-07
2.89041e-07
2.34229e-05
0.000238634
0.000223776
1.60601e-05
4.17528e-07
5.71879e-07
5.29763e-07
1.98784e-07
3.56308e-07
4.40742e-07
3.43252e-05
0.000225811
0.000211455
2.89124e-05
1.14798e-06
3.86881e-07
7.74728e-07
5.82257e-07
4.76511e-07
6.8305e-07
4.20168e-05
0.00021489
0.000201185
4.0951e-05
1.70291e-06
4.03364e-07
1.01166e-06
2.35496e-07
8.90063e-07
8.94774e-07
4.48255e-05
0.000205861
0.000191948
5.14686e-05
2.47289e-06
8.37813e-07
1.44333e-06
3.73878e-07
9.69795e-07
1.29267e-06
4.46145e-05
0.000197739
0.000183686
6.73121e-05
3.54693e-06
8.13166e-07
1.3119e-06
1.2412e-06
9.99821e-07
1.50483e-06
4.25698e-05
0.000191007
0.000175917
6.88131e-05
5.17245e-06
1.41357e-06
1.50417e-06
6.66909e-07
1.58242e-06
1.73172e-06
3.97836e-05
0.0001844
0.000168413
7.63891e-05
7.14981e-06
1.30772e-06
1.57809e-06
1.3935e-06
1.34971e-06
2.43436e-06
3.63793e-05
0.000179114
0.0001608
8.55534e-05
9.68849e-06
4.16982e-06
1.73861e-06
1.82509e-06
2.01751e-06
2.26141e-06
3.36751e-05
0.000173193
0.00015318
0.000100988
1.53843e-05
3.00594e-06
1.75386e-06
1.69808e-06
1.8142e-06
1.62361e-06
3.01801e-05
0.000168901
0.000145323
0.000109751
2.148e-05
6.20921e-06
2.72794e-06
2.49425e-06
1.95968e-06
2.77373e-06
2.74392e-05
0.000163069
0.000136643
0.000125002
3.00903e-05
5.2281e-06
2.48305e-06
2.31258e-06
2.31863e-06
2.51944e-06
2.37169e-05
0.000159086
0.000127047
0.000137145
5.40173e-05
1.12786e-05
4.82337e-06
3.00835e-06
3.07086e-06
2.85619e-06
2.08414e-05
0.000153405
0.000116077
0.000151442
7.96092e-05
1.59978e-05
4.92173e-06
3.62153e-06
3.82874e-06
3.72406e-06
1.75605e-05
0.000144346
0.000104108
0.000171471
0.000124343
3.81733e-05
1.44832e-05
5.95753e-06
5.36802e-06
4.65802e-06
1.46933e-05
0.000141552
9.43631e-05
0.000193175
0.00016539
7.80018e-05
2.61087e-05
1.28843e-05
8.91639e-06
7.0625e-06
1.45903e-05
0.00011946
0.00375056
5.21698e-05
3.91149e-05
3.90622e-05
3.90775e-05
3.90777e-05
3.90619e-05
3.91157e-05
5.21085e-05
0.00374237
0.00222254
3.11838e-06
8.56411e-07
8.40475e-07
8.41733e-07
8.42063e-07
8.40535e-07
8.5812e-07
3.09035e-06
0.00219522
0.00144423
8.61698e-07
1.54363e-07
1.46917e-07
1.46277e-07
1.46424e-07
1.46319e-07
1.54586e-07
8.45252e-07
0.00141315
0.000988209
1.06693e-06
1.16951e-07
1.15478e-07
1.20888e-07
1.20024e-07
1.19264e-07
1.23687e-07
1.03366e-06
0.000954731
0.000746981
1.31157e-06
1.0254e-07
9.73011e-08
1.03646e-07
1.03273e-07
1.03158e-07
1.13065e-07
1.14799e-06
0.000714402
0.000604876
1.46706e-06
1.06189e-07
1.04437e-07
1.02564e-07
1.11099e-07
1.10417e-07