/*--------------------------------*- C++ -*----------------------------------*\
| =========                 |                                                 |
| \\      /  F ield         | OpenFOAM: The Open Source CFD Toolbox           |
|  \\    /   O peration     | Version:  4.1                                   |
|   \\  /    A nd           | Web:      www.OpenFOAM.org                      |
|    \\/     M anipulation  |                                                 |
\*---------------------------------------------------------------------------*/
FoamFile
{
    version     2.0;
    format      ascii;
    class       volScalarField;
    location    "200";
    object      p;
}
// * * * * * * * * * * * * * * * * * * * * * * * * * * * * * * * * * * * * * //

dimensions      [0 2 -2 0 0 0 0];

internalField   nonuniform List<scalar> 
12000
(
0.0765755
0.0768551
0.0765197
0.0763991
0.0763614
0.0763599
0.0763947
0.0765127
0.0768455
0.0765626
0.0760091
0.0759937
0.075932
0.0759345
0.075921
0.0759194
0.0759298
0.0759244
0.0759836
0.0759959
0.0758903
0.0756541
0.0757171
0.0757656
0.0757674
0.0757656
0.0757601
0.0757084
0.0756422
0.0758752
0.0758609
0.0755976
0.0756826
0.0757107
0.0757107
0.0757084
0.0757041
0.075672
0.0755836
0.0758432
0.0757634
0.0755446
0.0756306
0.0756339
0.0756312
0.0756284
0.0756256
0.0756177
0.0755275
0.0757423
0.0756398
0.0754653
0.0755481
0.0755382
0.0755377
0.0755343
0.0755278
0.075532
0.0754445
0.0756138
0.0755375
0.075396
0.0754715
0.075454
0.0754565
0.0754521
0.0754406
0.075451
0.07537
0.075505
0.0754624
0.0753468
0.0754129
0.0753893
0.0753927
0.0753868
0.0753719
0.0753865
0.0753133
0.0754207
0.0754038
0.0753089
0.0753653
0.0753367
0.0753396
0.0753322
0.0753143
0.0753308
0.0752656
0.0753497
0.0753546
0.0752745
0.0753228
0.0752905
0.0752919
0.0752827
0.0752616
0.0752775
0.0752186
0.0752842
0.0753148
0.0752458
0.075285
0.0752495
0.0752484
0.0752366
0.0752119
0.075225
0.0751705
0.0752222
0.075285
0.075224
0.0752529
0.075214
0.0752091
0.0751933
0.0751645
0.0751734
0.0751214
0.0751629
0.0752636
0.0752068
0.0752261
0.0751834
0.0751729
0.0751521
0.0751184
0.0751219
0.0750708
0.0751042
0.0752505
0.0751947
0.0752046
0.0751574
0.0751393
0.0751118
0.0750724
0.0750688
0.0750174
0.0750436
0.0752466
0.0751894
0.0751889
0.0751354
0.0751079
0.0750718
0.0750247
0.0750128
0.0749594
0.0749787
0.0752538
0.0751928
0.0751801
0.0751177
0.0750781
0.0750312
0.0749743
0.0749524
0.0748947
0.074907
0.0752742
0.0752073
0.0751795
0.0751049
0.0750503
0.0749893
0.0749195
0.0748848
0.0748203
0.0748253
0.07531
0.0752352
0.0751888
0.0750977
0.075024
0.0749448
0.0748581
0.0748071
0.0747326
0.0747295
0.0753638
0.0752795
0.0752092
0.0750966
0.0749986
0.0748962
0.0747876
0.0747158
0.0746273
0.0746145
0.0754379
0.0753433
0.0752427
0.0751026
0.0749741
0.0748419
0.0747047
0.074606
0.0744979
0.0744733
0.0755331
0.0754295
0.0752914
0.0751166
0.0749503
0.0747802
0.0746053
0.0744711
0.0743358
0.0742959
0.0756479
0.0755394
0.0753572
0.07514
0.0749273
0.0747089
0.0744845
0.0743026
0.0741291
0.0740683
0.0757759
0.0756702
0.0754418
0.0751743
0.0749055
0.074626
0.0743359
0.0740884
0.0738601
0.0737691
0.0759048
0.0758126
0.0755457
0.0752226
0.0748866
0.0745297
0.0741518
0.0738121
0.0735022
0.0733651
0.0760161
0.0759481
0.0756674
0.0752903
0.0748748
0.0744191
0.0739228
0.0734502
0.0730133
0.0727999
0.0760924
0.076055
0.0758049
0.0753872
0.0748778
0.0742952
0.0736371
0.0729683
0.0723234
0.0719721
0.0761309
0.0761233
0.0759533
0.075521
0.0749058
0.0741617
0.0732823
0.0723183
0.0713139
0.0706675
0.0761597
0.076196
0.0761146
0.0756845
0.0749601
0.0740175
0.0728342
0.0714162
0.0697781
0.0684168
0.0761705
0.0762402
0.0761991
0.0757949
0.0750018
0.0738563
0.0722885
0.0701662
0.0674213
0.0637793
0.0761315
0.076179
0.0760801
0.0756687
0.0748662
0.0735403
0.071508
0.0682189
0.063842
0.0530213
0.0768564
0.0768924
0.076562
0.0764433
0.0764033
0.0764018
0.0764389
0.0765551
0.0768833
0.0768428
0.075995
0.0759473
0.0759121
0.0759189
0.0759037
0.0759021
0.0759142
0.0759047
0.0759374
0.0759816
0.0756556
0.075438
0.0755232
0.0755785
0.0755794
0.0755776
0.0755733
0.075515
0.0754269
0.0756402
0.0755996
0.0753407
0.0754421
0.0754703
0.0754685
0.0754663
0.0754639
0.0754321
0.0753269
0.0755814
0.0755472
0.0753236
0.0754277
0.0754243
0.0754202
0.0754175
0.0754162
0.0754152
0.0753065
0.0755251
0.0754687
0.0752854
0.0753879
0.0753686
0.0753691
0.0753657
0.0753583
0.0753718
0.0752637
0.0754416
0.0754003
0.0752479
0.0753413
0.0753128
0.0753186
0.0753143
0.0752994
0.0753203
0.07522
0.0753665
0.0753523
0.075224
0.0753049
0.0752697
0.0752778
0.0752724
0.0752523
0.0752776
0.0751881
0.0753089
0.0753158
0.0752078
0.0752761
0.0752367
0.0752447
0.0752375
0.0752139
0.0752403
0.0751607
0.0752601
0.0752832
0.075193
0.0752501
0.0752078
0.0752142
0.0752047
0.0751779
0.0752029
0.0751313
0.0752117
0.0752568
0.0751781
0.0752244
0.0751807
0.0751842
0.0751719
0.0751417
0.0751637
0.0750983
0.0751621
0.0752383
0.0751653
0.0752006
0.0751558
0.0751549
0.075139
0.0751052
0.0751228
0.075062
0.0751117
0.0752254
0.0751569
0.0751812
0.0751337
0.0751268
0.0751061
0.0750679
0.0750799
0.075022
0.0750597
0.0752189
0.0751533
0.0751663
0.0751144
0.0750998
0.0750729
0.0750291
0.0750339
0.074977
0.0750044
0.0752201
0.075155
0.0751564
0.0750983
0.0750737
0.0750386
0.0749877
0.0749832
0.074925
0.0749441
0.075231
0.0751639
0.0751523
0.0750854
0.0750484
0.0750026
0.0749423
0.0749262
0.0748643
0.0748762
0.0752538
0.0751822
0.0751549
0.0750763
0.0750235
0.0749638
0.0748912
0.0748611
0.0747926
0.0747967
0.0752908
0.0752122
0.0751658
0.0750714
0.0749987
0.0749212
0.0748323
0.074785
0.0747064
0.0747019
0.0753441
0.0752567
0.0751864
0.0750711
0.0749737
0.0748731
0.0747628
0.0746937
0.074601
0.0745864
0.0754158
0.0753183
0.0752183
0.0750761
0.0749479
0.0748177
0.0746791
0.0745821
0.0744696
0.0744428
0.0755066
0.0753992
0.0752631
0.0750869
0.0749206
0.0747524
0.0745767
0.0744432
0.0743032
0.0742607
0.0756155
0.0755007
0.0753222
0.0751042
0.0748911
0.0746746
0.0744498
0.0742674
0.0740886
0.0740248
0.0757378
0.0756215
0.0753968
0.0751289
0.074859
0.0745809
0.0742907
0.0740416
0.0738065
0.0737121
0.0758643
0.0757558
0.0754877
0.0751631
0.0748251
0.0744684
0.0740901
0.0737471
0.0734278
0.0732865
0.0759804
0.075892
0.0755947
0.0752109
0.0747921
0.0743352
0.0738368
0.0733576
0.0729059
0.0726862
0.0760698
0.0760132
0.0757174
0.075279
0.0747656
0.0741807
0.0735172
0.072835
0.0721634
0.0718004
0.076123
0.0761015
0.07585
0.075374
0.0747542
0.0740085
0.0731172
0.0721266
0.0710687
0.0703932
0.0761468
0.0761608
0.0759807
0.0754882
0.0747591
0.0738179
0.0726143
0.0711484
0.0693981
0.0679555
0.0761347
0.0761689
0.0760399
0.0755621
0.0747582
0.0736094
0.0720047
0.0697972
0.0668305
0.0629341
0.0761028
0.0760792
0.0758812
0.0754131
0.0746015
0.0732788
0.0712174
0.0677766
0.0630997
0.0514798
0.0765222
0.0765632
0.0762561
0.076133
0.0760915
0.07609
0.0761286
0.0762492
0.0765542
0.0765081
0.0759344
0.0759133
0.0758844
0.0758863
0.075871
0.0758694
0.0758816
0.0758771
0.0759035
0.075921
0.07572
0.0755247
0.0756104
0.0756642
0.0756656
0.0756638
0.0756589
0.0756021
0.0755135
0.0757049
0.0756863
0.0754439
0.075544
0.0755709
0.0755688
0.0755666
0.0755644
0.075534
0.0754303
0.0756683
0.0756353
0.07543
0.0755355
0.0755296
0.0755249
0.0755221
0.0755214
0.0755229
0.0754129
0.0756133
0.0755541
0.0753908
0.0754985
0.075477
0.0754781
0.0754746
0.0754666
0.0754823
0.0753691
0.0755268
0.0754793
0.0753447
0.0754449
0.075415
0.0754229
0.0754186
0.0754015
0.0754239
0.0753167
0.0754449
0.0754227
0.0753092
0.075397
0.0753601
0.0753711
0.0753657
0.0753427
0.0753697
0.0752729
0.075379
0.0753775
0.0752818
0.0753572
0.0753155
0.0753267
0.0753196
0.0752927
0.0753218
0.0752344
0.0753213
0.0753381
0.0752575
0.0753213
0.0752768
0.0752865
0.0752771
0.0752469
0.0752751
0.0751957
0.0752653
0.0753047
0.0752342
0.075287
0.0752408
0.0752477
0.0752355
0.075202
0.0752273
0.0751547
0.0752097
0.0752776
0.0752138
0.0752559
0.0752078
0.0752103
0.0751945
0.0751574
0.0751782
0.0751116
0.0751545
0.0752589
0.0751984
0.075229
0.0751784
0.0751749
0.0751544
0.0751131
0.0751277
0.0750655
0.0750984
0.075249
0.0751885
0.0752068
0.0751527
0.0751414
0.0751149
0.0750683
0.0750751
0.075015
0.0750395
0.0752467
0.075185
0.0751907
0.0751309
0.0751097
0.0750751
0.0750218
0.0750187
0.0749584
0.0749754
0.075254
0.0751892
0.0751811
0.075113
0.0750791
0.0750339
0.0749717
0.0749567
0.0748936
0.0749033
0.0752731
0.0752026
0.0751784
0.075099
0.0750492
0.0749903
0.0749162
0.0748871
0.0748182
0.0748199
0.0753059
0.0752275
0.0751839
0.0750891
0.0750195
0.0749428
0.0748529
0.0748066
0.0747284
0.0747212
0.0753545
0.0752662
0.0751988
0.0750837
0.0749895
0.0748898
0.0747789
0.074711
0.0746192
0.0746018
0.0754204
0.0753208
0.0752243
0.0750827
0.0749581
0.0748291
0.0746903
0.0745947
0.0744836
0.074454
0.0755039
0.075393
0.0752611
0.0750863
0.074924
0.0747575
0.0745821
0.0744505
0.074312
0.0742666
0.0756035
0.0754838
0.0753103
0.0750943
0.0748859
0.0746717
0.0744477
0.0742681
0.0740906
0.0740238
0.0757149
0.0755915
0.0753721
0.075107
0.0748427
0.0745678
0.0742789
0.0740334
0.0737993
0.0737014
0.07583
0.0757114
0.0754465
0.075125
0.0747937
0.0744416
0.0740651
0.0737264
0.0734071
0.0732615
0.075938
0.0758348
0.075533
0.0751505
0.0747402
0.0742901
0.0737942
0.0733193
0.0728654
0.0726392
0.0760279
0.075949
0.0756295
0.0751875
0.074686
0.074112
0.073452
0.0727728
0.0720934
0.071719
0.0760912
0.0760417
0.0757333
0.0752428
0.074641
0.0739136
0.0730279
0.0720364
0.0709566
0.0702576
0.0761274
0.076106
0.0758366
0.0753204
0.0746205
0.0737108
0.0725167
0.0710414
0.0692342
0.0677361
0.0761417
0.0761376
0.0759197
0.0754256
0.0746662
0.0735666
0.0719788
0.0697518
0.0666573
0.0626083
0.0761474
0.0761276
0.0759462
0.075548
0.0748245
0.0735657
0.0715247
0.0680507
0.0631529
0.0511028
0.076403
0.0764459
0.0761343
0.0760104
0.0759685
0.075967
0.076006
0.0761275
0.0764368
0.0763887
0.0759384
0.0759215
0.0758876
0.0758899
0.0758747
0.0758731
0.0758853
0.0758803
0.0759116
0.0759249
0.07577
0.0755815
0.0756658
0.075722
0.0757235
0.0757217
0.0757167
0.0756575
0.0755702
0.075755
0.0757163
0.0754739
0.0755727
0.0756016
0.0755991
0.0755969
0.0755951
0.0755626
0.0754603
0.0756984
0.0756409
0.0754288
0.0755318
0.0755262
0.0755206
0.0755179
0.075518
0.0755192
0.0754118
0.0756189
0.0755472
0.0753744
0.0754798
0.0754574
0.0754579
0.0754544
0.075447
0.0754638
0.0753528
0.0755195
0.0754655
0.0753202
0.0754187
0.0753873
0.075395
0.0753907
0.0753739
0.075398
0.0752924
0.0754304
0.0754041
0.0752792
0.075365
0.075326
0.0753371
0.0753316
0.0753086
0.0753382
0.0752434
0.0753591
0.0753558
0.075249
0.0753219
0.0752773
0.0752885
0.0752815
0.0752546
0.075287
0.0752026
0.0752977
0.0753155
0.0752239
0.075285
0.0752374
0.0752472
0.075238
0.0752078
0.0752396
0.0751635
0.0752403
0.0752821
0.0752019
0.0752518
0.0752025
0.0752095
0.0751976
0.0751639
0.0751924
0.0751234
0.0751849
0.0752561
0.0751838
0.0752225
0.0751717
0.0751742
0.0751587
0.0751215
0.0751449
0.0750816
0.0751306
0.0752383
0.0751706
0.075198
0.075145
0.0751413
0.0751211
0.0750798
0.0750966
0.0750371
0.075076
0.0752289
0.0751629
0.0751785
0.0751224
0.0751106
0.0750843
0.0750378
0.0750465
0.0749885
0.0750184
0.0752281
0.0751615
0.0751645
0.0751035
0.0750816
0.0750471
0.074994
0.0749928
0.0749339
0.0749553
0.0752368
0.0751676
0.0751567
0.0750882
0.0750535
0.0750085
0.0749465
0.0749334
0.0748711
0.074884
0.0752569
0.0751826
0.0751555
0.0750763
0.0750257
0.0749671
0.0748933
0.0748659
0.0747974
0.0748014
0.0752903
0.0752085
0.0751619
0.0750679
0.0749977
0.0749214
0.0748318
0.0747869
0.0747088
0.0747032
0.0753386
0.0752473
0.0751768
0.0750631
0.0749685
0.0748695
0.074759
0.0746923
0.0746002
0.0745838
0.0754031
0.075301
0.0752012
0.0750617
0.0749369
0.0748088
0.0746708
0.0745763
0.0744645
0.0744351
0.0754838
0.075371
0.0752357
0.0750634
0.0749015
0.0747362
0.0745618
0.0744313
0.0742917
0.0742458
0.0755794
0.0754579
0.0752809
0.0750679
0.0748606
0.0746479
0.0744251
0.0742466
0.0740677
0.0739997
0.0756859
0.0755604
0.075337
0.075075
0.0748125
0.0745397
0.0742523
0.0740077
0.0737718
0.073672
0.0757967
0.0756747
0.0754044
0.0750851
0.0747567
0.0744074
0.0740327
0.0736948
0.0733727
0.0732241
0.0759032
0.0757939
0.075483
0.0751008
0.0746945
0.0742484
0.0737549
0.0732803
0.0728218
0.0725907
0.075997
0.0759081
0.0755725
0.0751277
0.0746321
0.0740644
0.0734074
0.0727274
0.0720398
0.0716569
0.0760715
0.0760083
0.075674
0.0751783
0.0745866
0.0738695
0.0729883
0.0719939
0.0708989
0.0701844
0.0761256
0.0760885
0.0757878
0.075271
0.0745902
0.0736975
0.0725102
0.0710298
0.0691959
0.0676686
0.0761643
0.0761474
0.0759165
0.0754447
0.07472
0.0736458
0.0720687
0.0698376
0.0667085
0.0626235
0.0761908
0.0761795
0.0760569
0.075736
0.0750645
0.0738301
0.0717993
0.068329
0.0634084
0.051395
0.0763667
0.0764074
0.0760943
0.07597
0.0759281
0.0759266
0.0759656
0.0760874
0.0763982
0.0763524
0.0759264
0.0759079
0.075874
0.0758763
0.075861
0.0758594
0.0758716
0.0758667
0.075898
0.0759129
0.0757737
0.0755842
0.0756689
0.0757253
0.0757267
0.0757249
0.07572
0.0756606
0.0755729
0.0757587
0.0757184
0.0754743
0.0755728
0.0756013
0.0755986
0.0755964
0.0755948
0.0755626
0.0754606
0.0757004
0.075641
0.0754275
0.0755298
0.0755234
0.0755174
0.0755147
0.0755153
0.0755172
0.0754103
0.0756189
0.0755503
0.0753784
0.0754844
0.0754614
0.0754615
0.0754581
0.075451
0.0754684
0.0753567
0.0755225
0.0754729
0.0753306
0.0754311
0.0753997
0.0754074
0.0754031
0.0753863
0.0754105
0.0753028
0.0754373
0.0754138
0.0752934
0.0753819
0.0753431
0.0753546
0.0753491
0.0753257
0.0753552
0.0752576
0.0753683
0.0753667
0.075265
0.075341
0.0752965
0.0753084
0.0753014
0.0752738
0.0753062
0.0752187
0.0753081
0.0753272
0.0752407
0.0753051
0.0752576
0.0752683
0.0752592
0.075228
0.0752597
0.0751806
0.0752518
0.0752943
0.0752189
0.0752723
0.0752231
0.0752311
0.0752193
0.0751845
0.0752129
0.0751408
0.0751972
0.0752685
0.0752005
0.0752426
0.0751919
0.0751956
0.0751802
0.0751417
0.0751651
0.0750984
0.0751436
0.0752502
0.0751864
0.0752171
0.0751643
0.0751618
0.0751417
0.0750991
0.075116
0.075053
0.0750891
0.0752397
0.0751774
0.0751965
0.0751403
0.0751297
0.0751035
0.0750559
0.0750648
0.0750035
0.0750311
0.0752377
0.0751747
0.0751811
0.0751198
0.0750991
0.0750649
0.0750106
0.0750098
0.0749479
0.0749673
0.0752454
0.0751792
0.0751715
0.0751026
0.0750693
0.0750246
0.0749615
0.074949
0.0748841
0.0748952
0.0752644
0.0751925
0.0751685
0.0750888
0.0750397
0.0749814
0.0749066
0.0748798
0.0748092
0.0748118
0.0752964
0.0752165
0.0751728
0.0750783
0.0750096
0.0749338
0.0748433
0.0747992
0.0747194
0.0747127
0.0753431
0.0752531
0.0751853
0.0750712
0.0749782
0.0748797
0.0747686
0.0747028
0.0746093
0.0745921
0.0754054
0.075304
0.0752069
0.0750672
0.0749441
0.0748167
0.0746782
0.0745848
0.0744719
0.0744419
0.0754836
0.0753709
0.0752381
0.0750659
0.0749057
0.0747414
0.0745667
0.0744373
0.0742971
0.0742509
0.0755762
0.0754542
0.0752795
0.0750669
0.0748613
0.0746499
0.0744272
0.0742498
0.0740706
0.0740025
0.0756798
0.0755531
0.0753314
0.0750699
0.0748093
0.0745379
0.0742509
0.0740077
0.0737717
0.0736719
0.0757884
0.0756644
0.0753942
0.0750754
0.074749
0.0744015
0.0740275
0.0736909
0.073369
0.0732204
0.0758945
0.0757821
0.0754686
0.0750864
0.0746824
0.0742386
0.073746
0.0732728
0.0728143
0.0725831
0.0759906
0.0758978
0.0755557
0.0751098
0.0746172
0.0740526
0.0733971
0.0727181
0.0720298
0.0716462
0.0760703
0.076003
0.0756583
0.0751606
0.0745738
0.0738618
0.0729829
0.0719891
0.0708921
0.0701754
0.0761312
0.0760907
0.0757798
0.0752633
0.0745912
0.0737069
0.0725238
0.0710439
0.0692063
0.0676748
0.0761757
0.0761568
0.0759261
0.0754656
0.0747573
0.0736972
0.0721288
0.0699007
0.0667695
0.062674
0.0762067
0.0761972
0.0761024
0.0758166
0.0751735
0.0739611
0.0719464
0.0684861
0.0635689
0.0515297
0.0763668
0.0764074
0.0760943
0.07597
0.0759281
0.0759266
0.0759657
0.0760874
0.0763982
0.0763524
0.0759265
0.0759079
0.075874
0.0758763
0.0758611
0.0758595
0.0758717
0.0758667
0.075898
0.0759129
0.0757737
0.0755842
0.075669
0.0757253
0.0757268
0.0757249
0.07572
0.0756606
0.0755729
0.0757587
0.0757184
0.0754743
0.0755728
0.0756013
0.0755986
0.0755964
0.0755948
0.0755626
0.0754605
0.0757005
0.075641
0.0754275
0.0755299
0.0755234
0.0755174
0.0755147
0.0755152
0.0755172
0.0754103
0.0756189
0.0755503
0.0753785
0.0754845
0.0754614
0.0754615
0.0754581
0.075451
0.0754684
0.0753567
0.0755225
0.0754729
0.0753307
0.0754311
0.0753997
0.0754074
0.0754031
0.0753863
0.0754105
0.0753028
0.0754373
0.0754139
0.0752936
0.0753819
0.0753431
0.0753546
0.0753491
0.0753258
0.0753553
0.0752577
0.075368
0.0753668
0.0752651
0.075341
0.0752965
0.0753084
0.0753014
0.0752739
0.0753062
0.0752187
0.075308
0.0753273
0.0752407
0.0753051
0.0752576
0.0752683
0.0752592
0.0752281
0.0752597
0.0751807
0.0752518
0.0752944
0.0752189
0.0752723
0.0752232
0.0752312
0.0752194
0.0751846
0.075213
0.0751409
0.0751973
0.0752686
0.0752005
0.0752426
0.075192
0.0751957
0.0751803
0.0751418
0.0751652
0.0750985
0.0751438
0.0752503
0.0751864
0.0752172
0.0751644
0.0751619
0.0751418
0.0750993
0.0751161
0.0750531
0.0750893
0.0752397
0.0751775
0.0751966
0.0751404
0.0751299
0.0751037
0.0750561
0.075065
0.0750036
0.0750313
0.0752376
0.0751746
0.0751812
0.07512
0.0750993
0.0750651
0.0750108
0.07501
0.0749481
0.0749677
0.0752454
0.0751792
0.0751717
0.0751028
0.0750695
0.0750249
0.0749618
0.0749493
0.0748845
0.0748958
0.0752645
0.0751926
0.0751687
0.0750891
0.07504
0.0749818
0.0749069
0.0748802
0.0748097
0.0748125
0.0752967
0.0752168
0.0751731
0.0750788
0.0750101
0.0749343
0.0748438
0.0747997
0.0747199
0.0747135
0.0753435
0.0752535
0.0751858
0.0750718
0.0749787
0.0748804
0.0747692
0.0747034
0.07461
0.074593
0.0754058
0.0753045
0.0752075
0.0750679
0.0749447
0.0748175
0.074679
0.0745856
0.0744728
0.074443
0.075484
0.0753714
0.0752389
0.0750667
0.0749065
0.0747423
0.0745676
0.0744384
0.0742982
0.0742521
0.0755766
0.0754548
0.0752804
0.0750678
0.0748623
0.074651
0.0744283
0.0742512
0.074072
0.0740039
0.0756799
0.0755536
0.0753322
0.0750709
0.0748105
0.0745394
0.0742523
0.0740094
0.0737734
0.0736737
0.0757882
0.0756646
0.075395
0.0750766
0.0747504
0.0744032
0.0740293
0.0736931
0.0733712
0.0732226
0.0758939
0.0757819
0.0754692
0.0750876
0.074684
0.0742405
0.0737482
0.0732754
0.0728171
0.0725859
0.0759895
0.075897
0.0755559
0.0751109
0.0746188
0.0740548
0.0733997
0.0727213
0.0720334
0.0716496
0.0760687
0.0760016
0.0756581
0.0751616
0.0745754
0.073864
0.0729857
0.0719928
0.0708963
0.0701795
0.0761293
0.076089
0.075779
0.0752638
0.0745926
0.073709
0.0725267
0.0710478
0.0692113
0.0676796
0.0761743
0.0761555
0.0759251
0.0754656
0.0747582
0.073699
0.0721315
0.0699044
0.066775
0.0626797
0.0762061
0.0761968
0.0761017
0.0758162
0.0751737
0.0739628
0.071949
0.0684894
0.0635746
0.0515382
0.076403
0.076446
0.0761345
0.0760105
0.0759686
0.0759671
0.0760061
0.0761276
0.0764369
0.0763888
0.0759384
0.0759216
0.0758877
0.0758901
0.0758748
0.0758732
0.0758854
0.0758804
0.0759117
0.075925
0.07577
0.0755816
0.0756659
0.0757221
0.0757236
0.0757218
0.0757167
0.0756575
0.0755703
0.075755
0.0757162
0.0754741
0.0755728
0.0756016
0.0755992
0.075597
0.0755951
0.0755626
0.0754603
0.0756983
0.0756409
0.075429
0.075532
0.0755262
0.0755207
0.0755179
0.0755181
0.0755192
0.0754117
0.0756188
0.0755473
0.0753746
0.0754799
0.0754575
0.0754579
0.0754545
0.075447
0.0754638
0.0753527
0.0755195
0.0754659
0.0753204
0.0754187
0.0753873
0.0753951
0.0753907
0.0753739
0.075398
0.0752924
0.0754303
0.0754044
0.0752795
0.075365
0.075326
0.0753371
0.0753316
0.0753087
0.0753383
0.0752434
0.0753587
0.0753561
0.0752492
0.075322
0.0752774
0.0752887
0.0752816
0.0752549
0.0752873
0.0752027
0.0752973
0.0753158
0.0752239
0.0752851
0.0752375
0.0752474
0.0752382
0.0752081
0.07524
0.075164
0.07524
0.0752822
0.075202
0.0752521
0.0752028
0.0752098
0.0751979
0.0751643
0.0751928
0.075124
0.0751848
0.0752563
0.0751841
0.075223
0.0751722
0.0751746
0.0751591
0.0751218
0.0751452
0.075082
0.0751309
0.0752387
0.075171
0.0751984
0.0751456
0.0751418
0.0751216
0.0750802
0.0750968
0.0750376
0.0750765
0.075229
0.0751634
0.0751792
0.0751231
0.0751112
0.0750849
0.0750384
0.0750469
0.0749892
0.0750192
0.075228
0.075162
0.0751653
0.0751043
0.0750823
0.0750479
0.0749948
0.0749935
0.074935
0.0749565
0.0752372
0.0751681
0.0751572
0.0750889
0.0750544
0.0750095
0.0749476
0.0749344
0.0748727
0.0748857
0.0752578
0.0751834
0.0751562
0.0750772
0.0750269
0.0749684
0.0748946
0.0748672
0.0747993
0.0748036
0.0752915
0.0752097
0.0751631
0.0750693
0.0749992
0.0749231
0.0748336
0.0747886
0.0747111
0.0747059
0.0753402
0.0752489
0.0751785
0.0750649
0.0749704
0.0748716
0.0747613
0.0746945
0.0746029
0.0745869
0.0754049
0.0753029
0.0752034
0.075064
0.0749393
0.0748114
0.0746736
0.0745791
0.0744678
0.0744386
0.0754857
0.0753731
0.0752383
0.0750663
0.0749044
0.0747394
0.0745653
0.0744348
0.0742957
0.0742501
0.0755811
0.0754601
0.075284
0.0750713
0.0748642
0.0746519
0.0744296
0.0742511
0.0740726
0.0740049
0.0756871
0.0755624
0.0753405
0.075079
0.074817
0.0745446
0.0742578
0.0740135
0.073778
0.0736785
0.075797
0.0756762
0.0754079
0.0750898
0.074762
0.0744134
0.0740396
0.0737021
0.0733806
0.0732323
0.0759024
0.0757942
0.0754861
0.0751059
0.0747008
0.0742556
0.0737633
0.0732895
0.0728318
0.0726012
0.0759947
0.0759069
0.0755749
0.0751331
0.0746391
0.0740727
0.0734175
0.0727387
0.0720523
0.0716701
0.0760674
0.0760052
0.075675
0.0751831
0.0745937
0.0738785
0.0729996
0.0720073
0.0709143
0.0702005
0.0761201
0.0760837
0.0757866
0.075274
0.0745961
0.0737061
0.0725219
0.0710445
0.0692142
0.0676878
0.0761584
0.0761417
0.0759123
0.0754439
0.0747226
0.073652
0.0720787
0.0698514
0.0667282
0.0626449
0.0761859
0.0761739
0.0760496
0.0757296
0.0750618
0.0738331
0.0718069
0.0683404
0.0634275
0.0514249
0.0765223
0.0765635
0.0762564
0.0761333
0.0760918
0.0760903
0.0761289
0.0762496
0.0765545
0.0765083
0.0759344
0.0759134
0.0758846
0.0758865
0.0758712
0.0758696
0.0758818
0.0758772
0.0759036
0.0759211
0.0757199
0.0755249
0.0756106
0.0756644
0.0756657
0.0756639
0.075659
0.0756021
0.0755135
0.0757049
0.075686
0.0754442
0.0755443
0.075571
0.0755688
0.0755666
0.0755644
0.075534
0.0754302
0.0756682
0.0756351
0.0754304
0.0755357
0.0755297
0.0755249
0.0755221
0.0755214
0.0755228
0.0754128
0.075613
0.0755541
0.0753915
0.0754987
0.0754771
0.0754781
0.0754746
0.0754665
0.0754821
0.075369
0.0755266
0.0754799
0.0753451
0.0754447
0.075415
0.0754229
0.0754185
0.0754014
0.0754237
0.0753165
0.0754447
0.0754239
0.075309
0.0753965
0.0753601
0.0753713
0.0753656
0.0753427
0.0753698
0.0752729
0.0753783
0.0753789
0.0752814
0.0753571
0.0753157
0.075327
0.0753198
0.0752931
0.0753224
0.0752351
0.0753206
0.0753394
0.0752564
0.0753209
0.0752769
0.0752867
0.0752776
0.0752476
0.0752761
0.0751972
0.0752648
0.0753054
0.0752335
0.0752868
0.0752412
0.0752481
0.0752362
0.0752028
0.0752285
0.075156
0.07521
0.0752783
0.0752143
0.0752564
0.0752087
0.075211
0.0751955
0.0751582
0.0751788
0.0751118
0.0751556
0.075259
0.0751992
0.0752302
0.0751797
0.0751758
0.0751556
0.075114
0.0751275
0.0750654
0.0751001
0.0752474
0.0751897
0.0752092
0.0751544
0.0751426
0.0751162
0.0750695
0.075075
0.0750154
0.0750416
0.0752454
0.0751863
0.0751929
0.0751327
0.0751111
0.0750766
0.0750232
0.0750192
0.0749594
0.0749777
0.0752545
0.0751904
0.075182
0.0751146
0.0750808
0.0750357
0.0749734
0.0749579
0.0748953
0.074906
0.0752748
0.0752042
0.0751793
0.0751008
0.0750513
0.0749925
0.0749183
0.0748888
0.0748203
0.0748232
0.0753085
0.0752297
0.0751853
0.0750914
0.0750222
0.0749456
0.0748557
0.074809
0.0747311
0.0747251
0.0753577
0.0752689
0.0752009
0.0750865
0.0749927
0.0748933
0.0747825
0.0747142
0.0746226
0.0746063
0.075424
0.0753241
0.0752271
0.0750863
0.074962
0.0748332
0.0746948
0.0745991
0.074488
0.0744592
0.0755078
0.0753969
0.0752648
0.0750907
0.0749288
0.0747627
0.0745878
0.0744562
0.0743177
0.0742729
0.0756074
0.0754882
0.0753148
0.0750998
0.0748919
0.0746782
0.0744549
0.0742755
0.0740981
0.0740317
0.0757183
0.0755961
0.0753776
0.0751137
0.07485
0.0745759
0.0742879
0.0740428
0.073809
0.0737116
0.0758324
0.0757159
0.0754529
0.0751331
0.0748028
0.0744518
0.0740765
0.0737385
0.0734199
0.0732748
0.075939
0.0758383
0.0755398
0.07516
0.0747512
0.0743026
0.0738085
0.0733349
0.0728821
0.0726565
0.0760271
0.0759509
0.0756365
0.0751985
0.074699
0.0741271
0.0734696
0.0727926
0.0721151
0.0717416
0.076088
0.0760412
0.0757395
0.0752542
0.0746553
0.0739307
0.0730486
0.0720607
0.0709843
0.0702865
0.0761209
0.076102
0.0758401
0.0753299
0.0746338
0.0737282
0.0725391
0.0710695
0.0692686
0.0677725
0.0761298
0.076127
0.0759146
0.0754268
0.0746732
0.0735799
0.0719989
0.0697794
0.0666959
0.0626465
0.0761314
0.0761085
0.0759267
0.0755324
0.0748171
0.0735686
0.0715378
0.0680734
0.0631916
0.0511373
0.0768563
0.0768929
0.0765626
0.0764439
0.0764039
0.0764024
0.0764395
0.0765558
0.076884
0.0768427
0.0759948
0.0759473
0.0759122
0.0759191
0.0759038
0.0759022
0.0759144
0.0759049
0.0759376
0.0759814
0.0756551
0.0754382
0.0755234
0.0755786
0.0755795
0.0755776
0.0755733
0.075515
0.0754269
0.07564
0.075599
0.0753408
0.0754423
0.0754704
0.0754685
0.0754663
0.0754638
0.0754319
0.0753268
0.0755812
0.0755466
0.0753238
0.075428
0.0754244
0.0754201
0.0754174
0.0754161
0.0754149
0.0753061
0.075525
0.075468
0.0752862
0.0753884
0.0753687
0.075369
0.0753656
0.0753581
0.0753716
0.0752634
0.075441
0.0754008
0.0752483
0.0753412
0.0753128
0.0753186
0.0753142
0.0752991
0.0753198
0.0752194
0.0753659
0.0753545
0.0752244
0.0753043
0.0752696
0.0752779
0.0752722
0.0752521
0.0752771
0.0751874
0.0753081
0.0753187
0.075208
0.0752757
0.0752365
0.0752448
0.0752376
0.075214
0.0752407
0.0751608
0.075258
0.0752873
0.0751926
0.075249
0.0752077
0.0752143
0.0752051
0.0751784
0.0752043
0.0751323
0.0752083
0.0752597
0.0751781
0.0752238
0.0751809
0.0751846
0.0751725
0.0751427
0.0751653
0.0750994
0.07516
0.0752373
0.0751659
0.0752018
0.0751567
0.0751558
0.07514
0.0751064
0.0751237
0.0750631
0.0751131
0.075223
0.075157
0.075183
0.0751352
0.075128
0.0751075
0.0750695
0.0750803
0.075024
0.0750634
0.0752169
0.075153
0.0751685
0.0751165
0.0751014
0.0750746
0.0750312
0.0750347
0.0749798
0.0750089
0.0752194
0.0751553
0.0751587
0.0751007
0.0750756
0.0750407
0.0749902
0.0749846
0.0749283
0.074949
0.075232
0.0751654
0.0751545
0.075088
0.0750506
0.075005
0.0749452
0.0749282
0.0748679
0.0748811
0.0752563
0.0751845
0.0751575
0.0750793
0.0750262
0.0749668
0.0748945
0.0748637
0.0747965
0.074802
0.0752942
0.0752153
0.0751689
0.0750749
0.0750022
0.0749248
0.0748362
0.0747882
0.0747108
0.0747075
0.0753482
0.0752604
0.0751902
0.0750754
0.0749781
0.0748776
0.0747676
0.0746978
0.0746061
0.0745926
0.0754205
0.0753227
0.075223
0.0750814
0.0749533
0.0748232
0.0746851
0.0745874
0.0744758
0.07445
0.0755119
0.0754045
0.0752688
0.0750934
0.0749273
0.0747593
0.0745843
0.0744502
0.074311
0.0742694
0.0756211
0.0755068
0.075329
0.075112
0.0748994
0.0746832
0.0744593
0.0742767
0.0740986
0.0740357
0.0757435
0.0756281
0.0754048
0.0751385
0.0748694
0.0745919
0.0743028
0.0740538
0.0738197
0.0737262
0.0758694
0.0757628
0.0754969
0.0751748
0.0748382
0.0744825
0.0741057
0.0737633
0.0734452
0.073305
0.075984
0.0758988
0.0756055
0.0752253
0.0748086
0.0743533
0.073857
0.0733791
0.0729291
0.0727109
0.0760712
0.0760187
0.0757302
0.075297
0.0747864
0.0742038
0.0735434
0.0728639
0.072195
0.0718341
0.0761226
0.0761053
0.0758643
0.0753951
0.0747792
0.0740371
0.0731508
0.0721651
0.0711123
0.0704396
0.0761442
0.0761638
0.075995
0.07551
0.0747865
0.0738515
0.0726557
0.0711987
0.0694585
0.0680211
0.0761242
0.0761615
0.0760398
0.0755708
0.0747784
0.0736424
0.0720509
0.0698579
0.0669125
0.0630148
0.0760833
0.0760558
0.075857
0.0753943
0.0745962
0.0732927
0.0712533
0.0678374
0.063199
0.0515651
0.0765743
0.0768537
0.076518
0.0763972
0.0763595
0.076358
0.0763928
0.076511
0.0768441
0.0765603
0.0760082
0.0759929
0.0759311
0.0759337
0.0759201
0.0759185
0.0759289
0.0759236
0.0759827
0.0759946
0.0758894
0.0756531
0.0757165
0.075765
0.0757669
0.075765
0.0757595
0.0757078
0.0756415
0.0758742
0.0758601
0.0755967
0.0756822
0.0757105
0.0757104
0.0757081
0.0757038
0.0756717
0.0755831
0.0758425
0.075763
0.075544
0.0756304
0.0756338
0.0756312
0.0756283
0.0756255
0.0756175
0.0755274
0.0757418
0.0756398
0.0754647
0.0755483
0.0755383
0.0755378
0.0755343
0.0755277
0.0755317
0.075444
0.0756132
0.0755385
0.0753965
0.0754723
0.0754544
0.0754568
0.0754524
0.0754409
0.0754509
0.0753694
0.0755042
0.0754646
0.0753488
0.0754135
0.0753895
0.0753929
0.0753875
0.0753721
0.0753861
0.0753125
0.0754197
0.0754065
0.0753113
0.0753653
0.0753368
0.0753397
0.0753326
0.0753142
0.0753299
0.0752635
0.0753481
0.0753575
0.0752781
0.075323
0.075291
0.0752925
0.075283
0.0752614
0.0752765
0.075215
0.0752823
0.0753166
0.0752482
0.0752853
0.0752504
0.0752494
0.0752371
0.0752119
0.0752239
0.075168
0.0752212
0.0752843
0.0752228
0.0752523
0.075215
0.0752102
0.0751941
0.0751654
0.0751738
0.0751228
0.0751643
0.0752618
0.0752045
0.0752254
0.0751847
0.0751744
0.0751534
0.0751207
0.0751251
0.0750752
0.0751078
0.0752492
0.0751935
0.0752043
0.0751588
0.0751413
0.0751139
0.0750755
0.0750737
0.0750232
0.0750483
0.0752468
0.07519
0.0751901
0.0751374
0.0751103
0.0750746
0.0750285
0.0750183
0.0749656
0.074984
0.0752557
0.0751954
0.0751835
0.0751206
0.0750813
0.0750348
0.0749786
0.0749578
0.0749009
0.0749125
0.0752776
0.0752114
0.0751843
0.0751086
0.0750541
0.0749935
0.0749243
0.0748902
0.0748266
0.074831
0.0753145
0.0752403
0.0751942
0.075102
0.0750284
0.0749498
0.0748636
0.0748129
0.0747394
0.0747357
0.0753692
0.0752853
0.0752153
0.0751018
0.0750041
0.0749022
0.0747941
0.0747225
0.0746348
0.0746215
0.0754441
0.0753501
0.0752497
0.0751089
0.0749809
0.0748494
0.0747126
0.074614
0.0745066
0.0744815
0.07554
0.0754373
0.0752995
0.0751244
0.0749587
0.0747895
0.0746151
0.074481
0.0743464
0.074306
0.0756551
0.0755481
0.0753668
0.0751494
0.0749377
0.0747205
0.0744968
0.0743151
0.0741423
0.0740811
0.0757827
0.0756793
0.0754528
0.0751857
0.0749182
0.0746404
0.0743515
0.0741046
0.073877
0.0737856
0.0759099
0.0758208
0.075558
0.0752364
0.0749022
0.0745475
0.0741715
0.0738331
0.0735242
0.0733868
0.0760183
0.0759541
0.0756809
0.0753073
0.0748939
0.0744411
0.0739479