/*--------------------------------*- C++ -*----------------------------------*\
| =========                 |                                                 |
| \\      /  F ield         | OpenFOAM: The Open Source CFD Toolbox           |
|  \\    /   O peration     | Version:  4.1                                   |
|   \\  /    A nd           | Web:      www.OpenFOAM.org                      |
|    \\/     M anipulation  |                                                 |
\*---------------------------------------------------------------------------*/
FoamFile
{
    version     2.0;
    format      ascii;
    class       surfaceScalarField;
    location    "200";
    object      phi;
}
// * * * * * * * * * * * * * * * * * * * * * * * * * * * * * * * * * * * * * //

dimensions      [0 3 -1 0 0 0 0];

internalField   nonuniform List<scalar> 
33700
(
4.95205e-05
0.000901043
4.94526e-05
2.30885e-05
0.000971451
5.49975e-05
8.41422e-06
0.000957544
5.71462e-05
3.13865e-06
0.000948337
5.69538e-05
8.53842e-08
0.000945885
5.71837e-05
-2.97448e-06
0.000945893
5.71831e-05
-8.265e-06
0.000948356
5.6952e-05
-2.29575e-05
0.000957566
5.71408e-05
-4.94089e-05
0.00097148
5.49845e-05
0.000901091
4.95079e-05
3.11953e-05
0.000838821
3.10598e-05
2.36549e-05
0.000940938
3.8088e-05
1.34179e-05
0.000927633
4.01819e-05
6.13236e-06
0.000915963
3.96933e-05
2.14782e-07
0.00091174
4.00975e-05
-5.71513e-06
0.000911766
4.00938e-05
-1.30243e-05
0.000916033
3.96688e-05
-2.32364e-05
0.000927722
4.00892e-05
-3.07745e-05
0.000941107
3.79409e-05
0.000839207
3.11231e-05
1.61706e-05
0.000806745
1.59389e-05
1.65184e-05
0.000918459
2.21641e-05
1.17363e-05
0.00090896
2.34867e-05
6.06823e-06
0.000898412
2.32508e-05
3.79726e-07
0.000893697
2.37636e-05
-5.33144e-06
0.000893752
2.37593e-05
-1.10386e-05
0.000898563
2.32095e-05
-1.57886e-05
0.000909167
2.33382e-05
-1.56631e-05
0.000918951
2.20589e-05
0.000807546
1.60126e-05
8.88979e-06
0.000789354
8.52923e-06
1.17305e-05
0.000902821
1.28236e-05
9.57947e-06
0.000897969
1.31672e-05
5.25882e-06
0.000889078
1.36787e-05
5.81486e-07
0.000884072
1.43275e-05
-4.12897e-06
0.000884166
1.43211e-05
-8.54929e-06
0.000889364
1.36454e-05
-1.08047e-05
0.000898399
1.3048e-05
-8.2007e-06
0.000903695
1.26764e-05
0.000790815
8.54504e-06
5.50957e-06
0.000778888
4.9763e-06
9.30342e-06
0.000890946
8.09918e-06
8.325e-06
0.000891702
7.26303e-06
4.77842e-06
0.000884183
8.45839e-06
8.3914e-07
0.000878871
9.15643e-06
-3.15531e-06
0.000879013
9.16324e-06
-6.88337e-06
0.000884649
8.45764e-06
-8.12866e-06
0.000892369
7.29248e-06
-4.60001e-06
0.000892053
8.13215e-06
0.000781242
4.9879e-06
4.35289e-06
0.000770943
3.60516e-06
7.69943e-06
0.000881509
6.10306e-06
7.50832e-06
0.000887921
3.98318e-06
4.537e-06
0.000881395
5.77052e-06
1.15111e-06
0.000875949
6.31706e-06
-2.27686e-06
0.000876154
6.2948e-06
-5.54212e-06
0.000882125
5.79833e-06
-6.32329e-06
0.00088904
4.12257e-06
-3.08396e-06
0.000882625
6.20496e-06
0.000774552
3.61979e-06
4.2777e-06
0.000763412
3.26107e-06
6.56941e-06
0.000873782
5.4416e-06
6.94814e-06
0.000885346
2.20421e-06
4.43996e-06
0.000879384
4.52604e-06
1.62189e-06
0.000873981
4.79157e-06
-1.37676e-06
0.000874389
4.76723e-06
-4.24048e-06
0.000880446
4.54668e-06
-4.84187e-06
0.000887104
2.54664e-06
-2.50158e-06
0.000874635
5.6637e-06
0.000768822
3.24239e-06
4.51252e-06
0.000755793
3.11161e-06
6.05796e-06
0.000866841
5.3999e-06
6.67685e-06
0.000883127
1.60521e-06
4.52414e-06
0.000877236
4.30539e-06
2.26579e-06
0.000872015
4.22755e-06
-5.04606e-07
0.000872962
4.19913e-06
-3.08433e-06
0.000878736
4.29333e-06
-3.43046e-06
0.000885626
1.83272e-06
-2.17515e-06
0.000867609
5.78473e-06
0.00076348
3.18071e-06
4.84005e-06
0.000748021
2.93593e-06
5.8792e-06
0.000860183
5.62409e-06
6.74209e-06
0.000880827
1.44292e-06
4.86161e-06
0.000874758
4.36448e-06
2.95026e-06
0.000869936
3.99548e-06
5.28264e-07
0.000871478
3.90965e-06
-1.97163e-06
0.000876839
4.40348e-06
-2.0425e-06
0.000884224
1.48307e-06
-1.75274e-06
0.000861294
6.04042e-06
0.000758602
3.13968e-06
5.3705e-06
0.000739812
2.84456e-06
5.92356e-06
0.000853829
5.80819e-06
7.22099e-06
0.000878318
1.22038e-06
5.47488e-06
0.000872128
4.38626e-06
3.79184e-06
0.000867858
3.76976e-06
1.78799e-06
0.000869824
3.6662e-06
-7.7247e-07
0.000874927
4.48107e-06
-6.62379e-07
0.000883016
1.11033e-06
-1.24183e-06
0.000855713
6.17748e-06
0.000754255
3.11999e-06
6.08999e-06
0.000730983
2.74976e-06
6.28462e-06
0.00084788
5.76659e-06
8.02196e-06
0.000875672
9.22342e-07
6.42086e-06
0.000869432
4.3108e-06
4.95148e-06
0.000865864
3.47665e-06
3.1952e-06
0.00086822
3.37279e-06
5.57818e-07
0.00087311
4.46816e-06
7.93716e-07
0.000882076
7.20485e-07
-6.23209e-07
0.000850936
6.21314e-06
0.000750531
3.1168e-06
6.99014e-06
0.000721428
2.58157e-06
6.93544e-06
0.000842437
5.51534e-06
9.15573e-06
0.000872871
6.00566e-07
7.78413e-06
0.000866664
4.16011e-06
6.50116e-06
0.000863992
3.17575e-06
4.93415e-06
0.000866745
3.06083e-06
2.16175e-06
0.000871521
4.38015e-06
2.40575e-06
0.0008815
3.5168e-07
1.07179e-07
0.00084713
6.12688e-06
0.000747527
3.12881e-06
8.16398e-06
0.000710926
2.35982e-06
8.04804e-06
0.000837343
5.23334e-06
1.08084e-05
0.000869836
2.99701e-07
9.66217e-06
0.000863854
3.98173e-06
8.56814e-06
0.000862234
2.87695e-06
7.15784e-06
0.00086545
2.7301e-06
4.12913e-06
0.000870314
4.25943e-06
4.28228e-06
0.000881385
-1.50667e-08
9.69982e-07
0.000844546
5.92014e-06
0.000745333
3.18258e-06
9.72825e-06
0.00069912
2.10464e-06
9.82226e-06
0.000832303
4.97298e-06
1.31238e-05
0.000866479
8.52445e-08
1.22559e-05
0.000860961
3.79176e-06
1.12925e-05
0.000860604
2.62427e-06
9.93252e-06
0.000864419
2.41853e-06
6.59747e-06
0.000869546
4.13003e-06
6.45502e-06
0.000881838
-2.84492e-07
2.03929e-06
0.000843305
5.68201e-06
0.000744131
3.26025e-06
1.183e-05
0.000685473
1.84804e-06
1.24069e-05
0.00082701
4.74763e-06
1.62864e-05
0.000862645
-1.27983e-08
1.57493e-05
0.000857921
3.61048e-06
1.48713e-05
0.000859066
2.44874e-06
1.34752e-05
0.000863692
2.15535e-06
9.74151e-06
0.000869291
4.01757e-06
8.98976e-06
0.000883075
-4.57797e-07
3.38437e-06
0.00084348
5.45799e-06
0.000744227
3.30803e-06
1.46421e-05
0.000669237
1.62743e-06
1.60234e-05
0.000821096
4.56531e-06
2.05246e-05
0.000858154
2.43987e-08
2.03529e-05
0.000854645
3.48422e-06
1.95629e-05
0.000857523
2.36823e-06
1.80287e-05
0.00086329
1.96951e-06
1.37618e-05
0.000869648
3.93991e-06
1.20733e-05
0.000885312
-5.19931e-07
5.08018e-06
0.000845209
5.29254e-06
0.000745958
3.36878e-06
1.83537e-05
0.000649427
1.49191e-06
2.09551e-05
0.000814077
4.45185e-06
2.61226e-05
0.00085281
2.11646e-07
2.63684e-05
0.000850989
3.44676e-06
2.56901e-05
0.000855837
2.40103e-06
2.38538e-05
0.000863256
1.90466e-06
1.88936e-05
0.000870725
3.91515e-06
1.59907e-05
0.000888653
-4.0925e-07
7.26535e-06
0.000848766
5.19656e-06
0.000749699
3.54539e-06
2.31497e-05
0.000624777
1.53654e-06
2.75379e-05
0.000805262
4.46e-06
3.34801e-05
0.000846323
5.80267e-07
3.42214e-05
0.000846755
3.52925e-06
3.36656e-05
0.000853852
2.57708e-06
3.13649e-05
0.000863607
1.98407e-06
2.54582e-05
0.000872682
3.98174e-06
2.10658e-05
0.000893239
-1.64421e-07
1.00908e-05
0.000854572
5.19785e-06
0.000755914
3.89602e-06
2.922e-05
0.000593723
1.87009e-06
3.62486e-05
0.000793595
4.67217e-06
4.3137e-05
0.000838288
1.1809e-06
4.44697e-05
0.000841676
3.78262e-06
4.39914e-05
0.00085141
2.95649e-06
4.10971e-05
0.000864293
2.2422e-06
3.39393e-05
0.000875683
4.18737e-06
2.76283e-05
0.000899304
2.7492e-07
1.37536e-05
0.000863131
5.34386e-06
0.000765221
4.4661e-06
3.67345e-05
0.000554368
2.65708e-06
4.7674e-05
0.000777438
5.25021e-06
5.57389e-05
0.000828177
2.07988e-06
5.77519e-05
0.000835415
4.2825e-06
5.73149e-05
0.00084828
3.60151e-06
5.37103e-05
0.000865179
2.75114e-06
4.49572e-05
0.000879869
4.59822e-06
3.61541e-05
0.000907157
9.78671e-07
1.85345e-05
0.000875063
5.71615e-06
0.000778437
5.33778e-06
4.57351e-05
0.000504548
4.12227e-06
6.24573e-05
0.000754331
6.41542e-06
7.20523e-05
0.000815175
3.43851e-06
7.48475e-05
0.000827495
5.15819e-06
7.44761e-05
0.00084406
4.62515e-06
7.00728e-05
0.000865978
3.63705e-06
5.93484e-05
0.000885299
5.32522e-06
4.73229e-05
0.000917176
2.03542e-06
2.48421e-05
0.000891147
6.42398e-06
0.000796661
6.63811e-06
5.60029e-05
0.000442105
6.47531e-06
8.10778e-05
0.00072085
8.43423e-06
9.29556e-05
0.00079785
5.47747e-06
9.67162e-05
0.000817177
6.58886e-06
9.65298e-05
0.000838091
6.1876e-06
9.13282e-05
0.000866142
5.06811e-06
7.82599e-05
0.000891871
6.52491e-06
6.21034e-05
0.000929778
3.58131e-06
3.3261e-05
0.000912379
7.63755e-06
0.000821394
8.54611e-06
6.68592e-05
0.000365426
9.85385e-06
0.000103521
0.000672632
1.15832e-05
0.000119281
0.000773631
8.48504e-06
0.000124485
0.000803186
8.81599e-06
0.000124787
0.000829321
8.49767e-06
0.00011899
0.000864691
7.27811e-06
0.000103312
0.000899146
8.43047e-06
8.19408e-05
0.000945342
5.83398e-06
4.47071e-05
0.000940046
9.59267e-06
0.000854795
1.13237e-05
7.67573e-05
0.000274552
1.41484e-05
0.000128657
0.000604786
1.59686e-05
0.000151464
0.000738084
1.27654e-05
0.000159411
0.000783068
1.21977e-05
0.000160885
0.000816033
1.18435e-05
0.000155084
0.000859963
1.05566e-05
0.000136846
0.000906061
1.13495e-05
0.000109032
0.00096407
9.11198e-06
6.06023e-05
0.000975869
1.2632e-05
0.000900066
1.53468e-05
8.29418e-05
0.000173037
1.86045e-05
0.000153313
0.00051322
2.12171e-05
0.000188674
0.000684149
1.85958e-05
0.000202631
0.000751908
1.72275e-05
0.000206871
0.000795189
1.66296e-05
0.000202317
0.000849254
1.52893e-05
0.000182233
0.000910472
1.56988e-05
0.000146943
0.000985561
1.38234e-05
8.35237e-05
0.00102207
1.72456e-05
0.000962423
2.11806e-05
8.06759e-05
7.13565e-05
2.1043e-05
0.000171036
0.000396774
2.6106e-05
0.00022758
0.000601446
2.61795e-05
0.000254555
0.00070018
2.47735e-05
0.000265309
0.000760915
2.35437e-05
0.000264501
0.000828145
2.19393e-05
0.000244548
0.000908467
2.19805e-05
0.000201501
0.0010081
2.05312e-05
0.000117753
0.00108171
2.41224e-05
0.00105056
2.96158e-05
6.1624e-05
-9.53511e-06
1.93171e-05
0.00017176
0.000258423
2.82369e-05
0.000260751
0.000477475
3.4996e-05
0.000312582
0.000612468
3.5897e-05
0.00033805
0.000701659
3.38035e-05
0.000346345
0.000788597
3.12689e-05
0.000331182
0.000892861
3.07819e-05
0.000282789
0.00102659
2.99117e-05
0.000174033
0.00115613
3.43365e-05
0.00118245
4.21417e-05
1.43238e-05
-4.98263e-05
2.60472e-05
0.000145968
9.22378e-05
3.4576e-05
0.000277202
0.000299224
4.70378e-05
0.000370344
0.000468015
5.13279e-05
0.000426197
0.000597265
4.85607e-05
0.000454669
0.000715946
4.41966e-05
0.000453626
0.000851285
4.26365e-05
0.000406889
0.00103096
4.23676e-05
0.00027001
0.00124419
4.88099e-05
0.0013922
6.02638e-05
-3.70243e-06
-7.73143e-05
3.13022e-05
0.000103403
-6.29427e-05
4.81479e-05
0.000256954
7.83514e-05
6.73694e-05
0.000399159
0.000250092
7.57582e-05
0.000511535
0.000413243
7.16839e-05
0.000588437
0.000575721
6.33627e-05
0.00062814
0.000752794
5.88151e-05
0.000599266
0.00100135
5.85117e-05
0.000478468
0.00129589
6.91331e-05
0.00178321
8.74679e-05
7.20481e-05
9.98278e-06
-0.000159232
0.000171723
2.81552e-05
-0.00019068
0.000282317
6.18655e-05
-9.40126e-05
0.00041185
8.80367e-05
3.26422e-05
0.000564464
9.50248e-05
0.000165728
0.000717052
8.81904e-05
0.000335053
0.000855476
7.91794e-05
0.000535296
0.000907628
7.60206e-05
0.000873267
0.000895546
8.73519e-05
0.0012207
0.00012318
0.00255563
5.50562e-05
0.000971377
2.30186e-05
2.07691e-05
0.00106857
2.07124e-05
6.48368e-06
0.00105004
2.13905e-05
2.28056e-06
0.0010396
2.15613e-05
6.56746e-08
0.00103771
2.16908e-05
-2.1561e-06
0.00103772
2.16906e-05
-6.38071e-06
0.00103962
2.15606e-05
-2.07275e-05
0.0010501
2.13862e-05
-5.51954e-05
0.00106873
2.07239e-05
0.000971254
2.3061e-05
3.82005e-05
0.000940756
2.34839e-05
2.2999e-05
0.00109902
2.28508e-05
1.29556e-05
0.00107721
2.30693e-05
5.80669e-06
0.0010633
2.31516e-05
1.954e-07
0.00106009
2.33451e-05
-5.43522e-06
0.00106011
2.33408e-05
-1.2637e-05
0.00106337
2.31344e-05
-2.2724e-05
0.00107727
2.30221e-05
-3.77589e-05
0.00109888
2.2839e-05
0.00094112
2.3505e-05
2.23753e-05
0.0009181
1.62324e-05
1.83586e-05
0.00110714
1.80752e-05
1.1734e-05
0.00109044
1.69043e-05
5.74678e-06
0.00107586
1.67021e-05
3.75327e-07
0.00107237
1.68759e-05
-5.02675e-06
0.00107242
1.68732e-05
-1.1132e-05
0.00107602
1.66885e-05
-1.80727e-05
0.00109064
1.69289e-05
-2.18608e-05
0.0011064
1.83496e-05
0.000919153
1.61315e-05
1.31668e-05
0.000902194
1.12889e-05
1.54205e-05
0.00110274
1.49951e-05
9.96573e-06
0.00109591
1.3181e-05
4.86859e-06
0.00108175
1.2914e-05
5.70771e-07
0.0010779
1.31124e-05
-3.77454e-06
0.00107801
1.31061e-05
-9.02321e-06
0.00108203
1.29104e-05
-1.47221e-05
0.00109622
1.3201e-05
-1.22936e-05
0.00110151
1.5163e-05
0.00090416
1.12605e-05
8.60218e-06
0.000889932
8.66422e-06
1.29597e-05
0.00109416
1.23605e-05
8.87634e-06
0.00109639
1.0897e-05
4.43629e-06
0.00108376
1.09203e-05
8.08601e-07
0.00107953
1.11865e-05
-2.87698e-06
0.00107971
1.11858e-05
-7.48814e-06
0.00108421
1.09206e-05
-1.17148e-05
0.00109692
1.08489e-05
-7.52108e-06
0.00109314
1.23452e-05
0.000892924
8.72199e-06
6.80788e-06
0.00087995
6.81422e-06
1.14746e-05
0.00108498
1.06536e-05
8.05642e-06
0.00109468
9.15307e-06
4.29836e-06
0.00108371
9.6137e-06
1.11431e-06
0.0010792
9.86912e-06
-2.16315e-06
0.0010795
9.81537e-06
-6.11074e-06
0.0010844
9.59475e-06
-9.56744e-06
0.00109548
9.06652e-06
-5.43165e-06
0.00108487
1.0376e-05
0.000884012
7.12133e-06
6.39626e-06
0.000871461
5.39255e-06
1.09279e-05
0.00107615
9.77561e-06
7.47269e-06
0.00109258
7.79351e-06
4.29279e-06
0.00108284
8.60784e-06
1.48212e-06
0.00107816
8.68417e-06
-1.40086e-06
0.00107849
8.70099e-06
-4.83032e-06
0.00108382
8.60333e-06
-8.10078e-06
0.00109351
7.8192e-06
-4.77702e-06
0.00107804
9.19842e-06
0.00087669
5.80868e-06
6.71453e-06
0.000863499
4.40256e-06
1.03826e-05
0.00106903
8.89883e-06
7.24504e-06
0.00109068
6.69076e-06
4.47824e-06
0.00108222
7.74272e-06
1.92419e-06
0.00107743
7.54862e-06
-6.1543e-07
0.00107747
7.80657e-06
-3.75918e-06
0.00108354
7.7542e-06
-7.17765e-06
0.00109212
6.69013e-06
-4.61806e-06
0.0010727
8.60085e-06
0.000870583
4.69157e-06
7.34656e-06
0.000855519
3.61456e-06
1.006e-05
0.00106387
8.11207e-06
7.34674e-06
0.00108911
5.77103e-06
4.90227e-06
0.00108192
7.15255e-06
2.53412e-06
0.00107712
6.71964e-06
1.70603e-07
0.0010769
6.88632e-06
-2.74138e-06
0.00108375
7.15124e-06
-6.23123e-06
0.00109147
5.65781e-06
-4.5185e-06
0.00106898
8.08779e-06
0.000865427
3.79924e-06
8.07586e-06
0.000847378
2.95517e-06
1.02726e-05
0.00105985
7.67929e-06
7.73855e-06
0.00108792
4.98805e-06
5.57132e-06
0.00108169
6.81695e-06
3.35084e-06
0.00107704
6.10941e-06
1.03593e-06
0.00107686
6.05834e-06
-1.73785e-06
0.00108422
6.82896e-06
-5.37045e-06
0.00109131
4.93909e-06
-4.21063e-06
0.00106623
7.80446e-06
0.000861319
3.03869e-06
8.7403e-06
0.000839054
2.37768e-06
1.07965e-05
0.00105623
7.37253e-06
8.43323e-06
0.00108684
4.41341e-06
6.50851e-06
0.00108139
6.58132e-06
4.4131e-06
0.00107702
5.64243e-06
2.14043e-06
0.00107702
5.52456e-06
-5.97173e-07
0.00108488
6.58604e-06
-4.43611e-06
0.00109156
4.34776e-06
-3.70907e-06
0.00106415
7.60135e-06
0.000858362
2.38536e-06
9.41817e-06
0.000830486
1.77409e-06
1.17699e-05
0.0010522
7.23355e-06
9.55781e-06
0.00108571
3.97815e-06
7.79226e-06
0.00108101
6.3457e-06
5.80757e-06
0.001077
5.2165e-06
3.54093e-06
0.00107737
5.0177e-06
7.34801e-07
0.00108573
6.381e-06
-3.31967e-06
0.00109215
3.85415e-06
-2.98517e-06
0.00106256
7.4067e-06
0.000856691
1.8358e-06
1.03569e-05
0.000821314
1.21511e-06
1.31478e-05
0.00104755
7.13863e-06
1.11632e-05
0.00108438
3.65343e-06
9.5303e-06
0.0010805
6.16881e-06
7.62099e-06
0.00107699
4.83751e-06
5.28885e-06
0.00107793
4.54763e-06
2.34075e-06
0.00108672
6.2503e-06
-2.00167e-06
0.00109311
3.40646e-06
-2.02421e-06
0.00106127
7.26757e-06
0.000856492
1.37822e-06
1.16685e-05
0.00081099
8.00352e-07
1.48526e-05
0.00104243
6.9457e-06
1.33183e-05
0.00108264
3.39657e-06
1.18089e-05
0.00107983
6.00852e-06
9.98069e-06
0.00107691
4.56782e-06
7.53984e-06
0.00107864
4.18756e-06
4.33941e-06
0.00108797
6.11814e-06
-3.34684e-07
0.00109451
3.01781e-06
-8.81e-07
0.0010604
7.13304e-06
0.000857855
1.03665e-06
1.34586e-05
0.000798882
5.36754e-07
1.70687e-05
0.0010369
6.70676e-06
1.61511e-05
0.00108043
3.15406e-06
1.47843e-05
0.00107896
5.88275e-06
1.30477e-05
0.00107676
4.37744e-06
1.04476e-05
0.00107953
3.90629e-06
6.89343e-06
0.00108958
5.99832e-06
1.85977e-06
0.00109638
2.73894e-06
4.50079e-07
0.0010604
6.89932e-06
0.000860772
8.62854e-07
1.58551e-05
0.000784314
3.79772e-07
2.00605e-05
0.00103079
6.50099e-06
1.98662e-05
0.00107767
3.01255e-06
1.86924e-05
0.00107783
5.82423e-06
1.70249e-05
0.00107657
4.2575e-06
1.42051e-05
0.00108065
3.70603e-06
1.01693e-05
0.00109168
5.91262e-06
4.70173e-06
0.00109881
2.55623e-06
2.03809e-06
0.00106179
6.59174e-06
0.000865326
8.74427e-07
1.89773e-05
0.000766533
3.3592e-07
2.41092e-05
0.00102377
6.37434e-06
2.47453e-05
0.00107423
3.0524e-06
2.38149e-05
0.0010764
5.84148e-06
2.21782e-05
0.00107643
4.21388e-06
1.90824e-05
0.00108207
3.61376e-06
1.43972e-05
0.00109444
5.86906e-06
8.28278e-06
0.00110213
2.41801e-06
4.01666e-06
0.00106496
6.32821e-06
0.000871872
1.03714e-06
2.29884e-05
0.000744668
4.53796e-07
2.95653e-05
0.00101528
6.40575e-06
3.11271e-05
0.00107001
3.2804e-06
3.04871e-05
0.00107466
5.94887e-06
2.88414e-05
0.00107642
4.27434e-06
2.53946e-05
0.0010839
3.63481e-06
1.98947e-05
0.00109806
5.89882e-06
1.27874e-05
0.00110679
2.31134e-06
6.53237e-06
0.00107027
6.1727e-06
0.000880983
1.33808e-06
2.80593e-05
0.000717698
8.20925e-07
3.6803e-05
0.00100458
6.67067e-06
3.94225e-05
0.00106488
3.71937e-06
3.91333e-05
0.00107255
6.21647e-06
3.74585e-05
0.00107654
4.54834e-06
3.35594e-05
0.00108627
3.81115e-06
2.70437e-05
0.00110275
6.04707e-06
1.85359e-05
0.00111324
2.36475e-06
9.74869e-06
0.00107829
6.13721e-06
0.000893406
1.81214e-06
3.43842e-05
0.000684454
1.55767e-06
4.63032e-05
0.000990637
7.30546e-06
5.01609e-05
0.00105865
4.48697e-06
5.03066e-05
0.00106999
6.7299e-06
4.85962e-05
0.00107678
5.1067e-06
4.41321e-05
0.00108931
4.20252e-06
3.63474e-05
0.0011088
6.36745e-06
2.59409e-05
0.00112201
2.65313e-06
1.39118e-05
0.00108979
6.27797e-06
0.000910152
2.52391e-06
4.20804e-05
0.000643538
2.99875e-06
5.85172e-05
0.000972211
8.43766e-06
6.39895e-05
0.00105095
5.70578e-06
6.46877e-05
0.00106688
7.60526e-06
6.29667e-05
0.00107712
6.03805e-06
5.78475e-05
0.0010932
4.90465e-06
4.85033e-05
0.00111656
6.94249e-06
3.55752e-05
0.00113376
3.24348e-06
1.93433e-05
0.00110579
6.68154e-06
0.000932577
3.57611e-06
5.11402e-05
0.000593505
5.40944e-06
7.39474e-05
0.000947534
1.03363e-05
8.16539e-05
0.00104116
7.59435e-06
8.31001e-05
0.00106304
9.01471e-06
8.14788e-05
0.00107747
7.49192e-06
7.56806e-05
0.00109803
6.07365e-06
6.44772e-05
0.00112642
7.90681e-06
4.82735e-05
0.00114932
4.25237e-06
2.65592e-05
0.0011277
7.47389e-06
0.000962578
5.12193e-06
6.13565e-05
0.000533144
8.89817e-06
9.29929e-05
0.000914107
1.34046e-05
0.00010399
0.00102814
1.05307e-05
0.000106546
0.00105811
1.1219e-05
0.000105288
0.00107758
9.67633e-06
9.89555e-05
0.00110376
7.9148e-06
8.56626e-05
0.00113873
9.44193e-06
6.52684e-05
0.00116973
5.84327e-06
3.63197e-05
0.00115742
8.83801e-06
0.00100286
7.37997e-06
7.20025e-05
0.000461501
1.38278e-05
0.000115422
0.000868722
1.79626e-05
0.000131734
0.00100983
1.48003e-05
0.000136246
0.00105125
1.45796e-05
0.000135922
0.00107686
1.29122e-05
0.000129511
0.00111003
1.07222e-05
0.000114097
0.00115371
1.18113e-05
8.85022e-05
0.00119616
8.30065e-06
4.98583e-05
0.00119768
1.10441e-05
0.00105742
1.06618e-05
8.16331e-05
0.00037837
2.01396e-05
0.000140039
0.000807408
2.41514e-05
0.000165265
0.000982418
2.08017e-05
0.000173596
0.00104058
1.95913e-05
0.000175345
0.00107415
1.7619e-05
0.0001699
0.00111589
1.49e-05
0.000152873
0.00117107
1.53848e-05
0.000121181
0.00122973
1.19659e-05
6.94787e-05
0.00125216
1.44806e-05
0.00113267
1.54118e-05
8.76447e-05
0.000285358
2.64436e-05
0.000163995
0.000725554
3.16312e-05
0.000203967
0.000939599
2.90448e-05
0.000220094
0.00102222
2.70237e-05
0.000226178
0.00106721
2.44148e-05
0.000223725
0.00111936
2.09288e-05
0.000206668
0.00118955
2.05715e-05
0.000168626
0.00127105
1.72644e-05
9.8938e-05
0.00132633
1.96455e-05
0.001239
2.22279e-05
8.63639e-05
0.000188637
2.97024e-05
0.000182058
0.0006197
3.84113e-05
0.000245034
0.000872077
3.95516e-05
0.000276468
0.00098881
3.78753e-05
0.000291513
0.00105186
3.4115e-05
0.000295878
0.00111697
2.92928e-05
0.000282581
0.00120593
2.76978e-05
0.000240136
0.0013189
2.45002e-05
0.000148136
0.00142549
2.71709e-05
0.00139738
3.18846e-05
7.12207e-05
0.000113148
3.03466e-05
0.000187962
0.000493586
4.39596e-05
0.000283646
0.000771558
5.18765e-05
0.000342059
0.000929467
5.22552e-05
0.000374814
0.00102069
4.69618e-05
0.000392949
0.00110325
3.97739e-05
0.000391303
0.00121393
3.62623e-05
0.000351333
0.00136804
3.31756e-05
0.000233338
0.00155516
3.71057e-05
0.0016459
4.50741e-05
4.78041e-05
7.21242e-05
2.45817e-05
0.000175574
0.000364549
4.94329e-05
0.000306837
0.000642329
6.53439e-05
0.00040786
0.000835203
6.90031e-05
0.000476465
0.000961786
6.1991e-05
0.00052225
0.00106985
5.09778e-05
0.000548677
0.00120209
4.42298e-05
0.000523313
0.00141097
4.09466e-05
0.000421577
0.00167759
4.84535e-05
0.00209313
6.18199e-05
6.26173e-05
-7.4515e-06
2.71123e-05
0.000177451
3.64691e-05
0.000241465
0.000319345
6.08621e-05
0.000501473
0.000457122
6.84857e-05
0.000717011
0.000577856
6.19354e-05
0.000874179
0.00067923
4.872e-05
0.00100799
0.000775949
3.90822e-05
0.00114551
0.000807083
3.56912e-05
0.00142021
0.000802211
4.92958e-05
0.00172058
7.83933e-05
0.00294018
5.72029e-05
0.000957481
8.3352e-06
2.14456e-05
0.00105005
6.4214e-06
6.40445e-06
0.00103009
6.34507e-06
2.15173e-06
0.00101946
6.356e-06
5.99853e-08
0.00101742
6.36903e-06
-2.03963e-06
0.00101742
6.36893e-06
-6.31506e-06
0.00101948
6.35575e-06
-2.14408e-05
0.00103017
6.34512e-06
-5.74344e-05
0.00105029
6.43178e-06
0.00095728
8.34802e-06
4.02866e-05
0.000927465
1.32193e-05
2.32081e-05
0.00107721
1.27789e-05
1.26723e-05
0.0010512
1.25063e-05
5.797e-06
0.00103699
1.25184e-05
1.78956e-07
0.00103385
1.25451e-05
-5.46154e-06
0.00103388
1.2543e-05
-1.24026e-05
0.00103707
1.25123e-05
-2.29779e-05
0.00105128
1.25073e-05
-3.97612e-05
0.00107712
1.28052e-05
0.0009278
1.32295e-05
2.36938e-05
0.000908622
1.13931e-05
1.71868e-05
0.0010904
1.14118e-05
1.11163e-05
0.00106339
1.0808e-05
5.6763e-06
0.00104838
1.07644e-05
3.63342e-07
0.00104526
1.07977e-05
-4.98166e-06
0.00104532
1.07963e-05
-1.05232e-05
0.00104855
1.0763e-05
-1.66975e-05
0.00106357
1.08296e-05
-2.30713e-05
0.00109038
1.14757e-05
0.00090949
1.13784e-05
1.34805e-05
0.000897386
9.06204e-06
1.36064e-05
0.00109582
9.47821e-06
9.10019e-06
0.00107248
8.62526e-06
4.59712e-06
0.00105729
8.52848e-06
5.67185e-07
0.00105384
8.58915e-06
-3.50808e-06
0.00105394
8.58736e-06
-8.1338e-06
0.00105759
8.52921e-06
-1.27744e-05
0.0010728
8.63959e-06
-1.26742e-05
0.00109593
9.53933e-06
0.00089902
9.06729e-06
7.73297e-06
0.000890761
7.58049e-06
1.14875e-05
0.00109626
8.18765e-06
8.09267e-06
0.00107939
7.41227e-06
4.11764e-06
0.00106477
7.44975e-06
8.12265e-07
0.00106075
7.60625e-06
-2.54841e-06
0.00106091
7.60349e-06
-6.67215e-06
0.00106522
7.4452e-06
-1.02409e-05
0.00107986
7.3904e-06
-6.69051e-06
0.00109655
8.20006e-06
0.000893441
7.62378e-06
4.61012e-06
0.000886538
6.45677e-06
9.96567e-06
0.00109448
7.11289e-06
7.26486e-06
0.00108495
6.32001e-06
3.9668e-06
0.00107115
6.55674e-06
1.11641e-06
0.0010667
6.80192e-06
-1.81935e-06
0.0010669
6.79372e-06
-5.31989e-06
0.0010718
6.54353e-06
-8.33319e-06
0.00108569
6.28212e-06
-3.42412e-06
0.00109497
7.07771e-06
0.00089061
6.54346e-06
3.14715e-06
0.000883355
5.46264e-06
8.98967e-06
0.00109222
6.22681e-06
6.49515e-06
0.00109006
5.21759e-06
3.91438e-06
0.00107676
5.61311e-06
1.46873e-06
0.001072
5.86647e-06
-1.03268e-06
0.00107227
5.86702e-06
-3.88782e-06
0.0010777
5.60224e-06
-6.6327e-06
0.00109113
5.15934e-06
-1.6692e-06
0.00109314
6.09214e-06
0.000889113
5.65155e-06
2.80531e-06
0.000880267
4.72275e-06
8.14382e-06
0.00109028
5.54038e-06
5.97428e-06
0.00109468
4.27691e-06
4.03844e-06
0.00108167
4.81184e-06
1.90752e-06
0.00107671
5.00652e-06
-1.96272e-07
0.00107717
5.0517e-06
-2.5111e-06
0.00108299
4.81588e-06
-5.05992e-06
0.00109619
4.21039e-06
-8.45246e-07
0.00109215
5.40542e-06
0.000888
4.97532e-06
2.98947e-06
0.000876741
4.19124e-06
7.55067e-06
0.00108885
5.02182e-06
5.77184e-06
0.00109872
3.54287e-06
4.40703e-06
0.00108597
4.24733e-06
2.54537e-06
0.00108097
4.35608e-06
6.05798e-07
0.00108162
4.42102e-06
-1.25588e-06
0.00108779
4.25035e-06
-3.74932e-06
0.00110091
3.46234e-06
-2.82317e-07
0.00109189
4.909e-06
0.000887078
4.45521e-06
3.25351e-06
0.000872705
3.77754e-06
7.41879e-06
0.00108771
4.68622e-06
5.88906e-06
0.00110233
2.94675e-06
5.02814e-06
0.00108982
3.86733e-06
3.38139e-06
0.0010849
3.86555e-06
1.46181e-06
0.00108573
3.90646e-06
-4.02413e-08
0.00109228
3.87375e-06
-2.52812e-06
0.00110548
2.89449e-06
3.90586e-07
0.00109225
4.54932e-06
0.000886431
4.09334e-06
3.52244e-06
0.000868168
3.43281e-06
7.65478e-06
0.00108657
4.42538e-06
6.37146e-06
0.00110559
2.48226e-06
5.92332e-06
0.00109329
3.59757e-06
4.43705e-06
0.00108859
3.47467e-06
2.55292e-06
0.00108967
3.50028e-06
1.27896e-06
0.00109658
3.59911e-06
-1.23945e-06
0.00110995
2.4243e-06
1.16994e-06
0.00109321
4.26443e-06
0.000886174
3.82977e-06
3.98518e-06
0.000862912
3.0843e-06
8.25532e-06
0.00108529
4.28024e-06
7.26557e-06
0.00110844
2.14525e-06
7.15267e-06
0.0010964
3.38566e-06
5.79856e-06
0.00109205
3.14617e-06
3.9154e-06
0.00109346
3.1473e-06
2.78292e-06
0.00110075
3.37745e-06
1.75939e-07
0.00111442
2.02509e-06
2.04894e-06
0.00109475
4.02721e-06
0.000886454
3.62253e-06
4.76279e-06
0.000856606
2.79719e-06
9.21261e-06
0.0010838
4.2204e-06
8.59167e-06
0.00111087
1.8832e-06
8.79021e-06
0.00109918
3.23246e-06
7.54946e-06
0.00109529
2.87534e-06
5.61866e-06
0.00109714
2.83666e-06
4.53454e-06
0.00110489
3.22699e-06
1.70389e-06
0.00111899
1.69847e-06
3.05376e-06
0.0010968
3.88948e-06
0.000887506
3.3992e-06
5.89968e-06
0.000848942
2.6024e-06
1.06786e-05
0.00108183
4.16534e-06
1.04684e-05
0.00111283
1.68278e-06
1.09424e-05
0.00110163
3.11939e-06
9.81665e-06
0.00109835
2.67672e-06
7.81188e-06
0.00110078
2.58583e-06
6.63528e-06
0.00110909
3.12574e-06
3.46813e-06
0.00112377
1.42939e-06
4.16136e-06
0.00109942
3.85737e-06
0.000889572
3.15124e-06
7.56372e-06
0.000839492
2.46157e-06
1.28151e-05
0.0010792
4.12236e-06
1.30372e-05
0.00111424
1.55563e-06
1.37725e-05
0.00110377
3.04153e-06
1.27531e-05
0.00110123
2.54524e-06
1.06266e-05
0.00110445
2.39207e-06
9.22497e-06
0.00111346
3.05631e-06
5.64725e-06
0.00112889
1.22586e-06
5.3824e-06
0.00110277
3.84199e-06
0.000892887
2.95019e-06
9.90076e-06
0.000827649
2.36052e-06
1.56909e-05
0.00107583
4.12223e-06
1.64633e-05
0.001115
1.51253e-06
1.74748e-05
0.0011056
3.0162e-06
1.65448e-05
0.00110398
2.47466e-06
1.42426e-05
0.00110824
2.25438e-06
1.24691e-05
0.00111815
3.02644e-06
8.33883e-06
0.00113451
1.10236e-06
6.80593e-06
0.0011071
3.82319e-06
0.000897765
2.82201e-06
1.30068e-05
0.00081267
2.34744e-06
1.95293e-05
0.00107153
4.17727e-06
2.09924e-05
0.00111504
1.5821e-06
2.2305e-05
0.0011071
3.05514e-06
2.14362e-05
0.00110662
2.47593e-06
1.89112e-05
0.00111223
2.18395e-06
1.65856e-05
0.00112334
3.04355e-06
1.16587e-05
0.00114084
1.0369e-06
8.55284e-06
0.00111273
3.82837e-06
0.000904602
2.77245e-06
1.70019e-05
0.000793726
2.43383e-06
2.46772e-05
0.00106596
4.33879e-06
2.69473e-05
0.00111428
1.80823e-06
2.85783e-05
0.00110827
3.18099e-06
2.77458e-05
0.00110919
2.56563e-06
2.49251e-05
0.00111652
2.19707e-06
2.18623e-05
0.00112921
3.11971e-06
1.58309e-05
0.00114819
1.0258e-06
1.078e-05
0.00112011
3.88014e-06
0.000913922
2.81798e-06
2.2055e-05
0.00076986
2.67075e-06
3.14973e-05
0.00105854
4.68294e-06
3.46912e-05
0.00111261
2.2298e-06
3.66679e-05
0.00110911
3.43767e-06
3.58836e-05
0.00111176
2.79233e-06
3.26648e-05
0.00112125
2.32885e-06
2.86437e-05
0.00113602
3.28504e-06
2.11698e-05
0.00115695
1.11279e-06
1.36566e-05
0.00112979
3.99653e-06
0.000926417
2.99401e-06
2.82552e-05
0.000740003
3.1979e-06
4.03435e-05
0.00104852
5.2694e-06
4.46825e-05
0.00110988
2.90522e-06
4.70658e-05
0.0011096
3.88861e-06
4.63615e-05
0.00111439
3.21562e-06
4.26382e-05
0.00112658
2.62709e-06
3.73971e-05
0.00114408
3.58142e-06
2.80704e-05
0.00116761
1.34747e-06
1.74128e-05
0.00114254
4.21326e-06
0.000943023
3.35005e-06
3.5727e-05
0.000703112
4.20203e-06
5.17619e-05
0.00103473
6.22222e-06
5.75187e-05
0.00110594
3.92457e-06
6.03826e-05
0.00110975
4.61963e-06
5.98146e-05
0.00111712
3.90645e-06
5.55096e-05
0.00113266
3.15813e-06
4.87576e-05
0.00115374
4.06819e-06
3.70558e-05
0.0011808
1.78344e-06
2.2357e-05
0.00115936
4.58834e-06
0.000965023
3.95133e-06
4.45338e-05
0.000658157
5.8686e-06
6.61235e-05
0.00101583
7.6828e-06
7.37941e-05
0.00110047
5.4178e-06
7.731e-05
0.00110953
5.75362e-06
7.70264e-05
0.00111996
4.96996e-06
7.21513e-05
0.00113962
4.02167e-06
6.36052e-05
0.00116539
4.83145e-06
4.88762e-05
0.0011973
2.50581e-06
2.89589e-05
0.00118158
5.20203e-06
0.000994233
4.88738e-06
5.43213e-05
0.000604385
8.38716e-06
8.34292e-05
0.000990319
9.83166e-06
9.40745e-05
0.00109285
7.54062e-06
9.86431e-05
0.00110875
7.45111e-06
9.89743e-05
0.00112279
6.54399e-06
9.37275e-05
0.00114747
5.3463e-06
8.31896e-05
0.00117941
5.98347e-06
6.4651e-05
0.00121809
3.61793e-06
3.79216e-05
0.001211
6.16208e-06
0.00103327
6.28117e-06
6.44469e-05
0.000541986
1.1817e-05
0.00010376
0.00095608
1.29164e-05
0.000118977
0.00108195
1.05075e-05
0.000125315
0.0011071
9.92646e-06
0.000126883
0.00112535
8.81377e-06
0.00012181
0.00115599
7.29155e-06
0.000109325
0.00119607
7.66184e-06
8.61366e-05
0.00124434
5.25905e-06
5.03829e-05
0.00125022
7.60474e-06
0.00108604
8.28516e-06
7.39693e-05
0.000472157
1.60352e-05
0.000126384
0.000910726
1.71157e-05
0.000148793
0.00106585
1.45187e-05
0.000158308
0.00110378
1.3414e-05
0.000162234
0.00112707
1.19858e-05
0.000158508
0.00116461
1.00278e-05
0.000144714
0.00121526
1.00027e-05
0.000116209
0.00127727
7.55699e-06
6.84303e-05
0.00130282
9.67006e-06
0.00115882
1.1063e-05
8.14957e-05
0.000396659
2.04791e-05
0.000149333
0.000852256
2.22858e-05
0.00018302
0.0010415
1.97227e-05
0.000198469
0.00109722
1.8149e-05