/*--------------------------------*- C++ -*----------------------------------*\
| =========                 |                                                 |
| \\      /  F ield         | OpenFOAM: The Open Source CFD Toolbox           |
|  \\    /   O peration     | Version:  4.1                                   |
|   \\  /    A nd           | Web:      www.OpenFOAM.org                      |
|    \\/     M anipulation  |                                                 |
\*---------------------------------------------------------------------------*/
FoamFile
{
    version     2.0;
    format      ascii;
    class       volVectorField;
    location    "200";
    object      U;
}
// * * * * * * * * * * * * * * * * * * * * * * * * * * * * * * * * * * * * * //

dimensions      [0 1 -1 0 0 0 0];

internalField   nonuniform List<vector> 
12000
(
(0.0919684 -0.00968903 0.00968482)
(0.0965658 -0.00181211 0.0106714)
(0.0959736 -0.00135447 0.0110684)
(0.0955826 -0.000559315 0.0110856)
(0.0954855 -0.000150871 0.0111142)
(0.0954857 0.000133997 0.0111142)
(0.0955831 0.000543542 0.0110857)
(0.095974 0.00133969 0.0110694)
(0.0965667 0.00179724 0.0106716)
(0.0919718 0.00969372 0.0096866)
(0.0862069 -0.00379258 0.00378275)
(0.0951743 -0.00253275 0.00523737)
(0.0937567 -0.00196371 0.00566647)
(0.0926787 -0.000885484 0.00564202)
(0.0923431 -0.000278666 0.00567592)
(0.0923446 0.00023565 0.00567553)
(0.0926827 0.000844111 0.00564017)
(0.0937619 0.00192122 0.00566261)
(0.0951825 0.00248529 0.00524081)
(0.0862205 0.00379101 0.00379513)
(0.0822773 0.00081589 -0.000832718)
(0.0933024 -0.00254571 0.00013073)
(0.0920276 -0.00162701 0.000445517)
(0.0907868 -0.000793583 0.000449707)
(0.0903068 -0.0003004 0.000487177)
(0.0903104 0.000224377 0.000486291)
(0.0907965 0.000720271 0.000445299)
(0.0920374 0.00155249 0.000432997)
(0.0933152 0.00248318 0.00012669)
(0.0823301 -0.000830735 -0.000820835)
(0.0795688 0.00272017 -0.00274636)
(0.0911332 -0.0024926 -0.00238928)
(0.0903184 -0.00114556 -0.00233214)
(0.0892911 -0.000664979 -0.00225373)
(0.0887857 -0.000301011 -0.00220198)
(0.0887935 0.000184508 -0.00220281)
(0.0893124 0.000555072 -0.0022573)
(0.0903525 0.00104201 -0.0023379)
(0.0912253 0.00241647 -0.00236645)
(0.0796806 -0.00275816 -0.00273776)
(0.0781715 0.00319923 -0.00323806)
(0.0895505 -0.00241922 -0.0033499)
(0.0893234 -0.000776491 -0.00356849)
(0.0885191 -0.000621692 -0.0034132)
(0.0880053 -0.000312012 -0.00335062)
(0.0880157 0.000144225 -0.00335138)
(0.0885552 0.000466828 -0.00341416)
(0.0893755 0.000640728 -0.00356592)
(0.0896348 0.00232162 -0.00332966)
(0.0783573 -0.0032666 -0.00323413)
(0.0774158 0.00308554 -0.00314044)
(0.0885114 -0.00230904 -0.00361133)
(0.088881 -0.000498286 -0.00403813)
(0.0881976 -0.000632847 -0.0038189)
(0.0876624 -0.000323016 -0.00375914)
(0.0876841 9.12872e-05 -0.00375911)
(0.0882579 0.000420717 -0.00381616)
(0.0889699 0.000322832 -0.00403218)
(0.0886579 0.0021845 -0.00357193)
(0.0777096 -0.00318189 -0.00313411)
(0.0767391 0.00276518 -0.00284057)
(0.0877405 -0.00219143 -0.00352599)
(0.0886602 -0.000291214 -0.00412331)
(0.0880501 -0.000666736 -0.00383606)
(0.0875046 -0.000333461 -0.00378471)
(0.0875229 1.24621e-05 -0.00379862)
(0.088133 0.000379573 -0.00384211)
(0.0887888 6.05359e-05 -0.00411252)
(0.0878368 0.0020215 -0.00351438)
(0.0771789 -0.0028986 -0.00283289)
(0.0759916 0.0023923 -0.00249607)
(0.0870579 -0.00208432 -0.00323024)
(0.0884389 -0.00016318 -0.00398288)
(0.087858 -0.000714596 -0.00363141)
(0.0873208 -0.000350142 -0.00359761)
(0.0873765 -8.76092e-05 -0.00361305)
(0.0879882 0.0003399 -0.0036353)
(0.0886658 -0.000158378 -0.0039338)
(0.0871198 0.00183893 -0.00323742)
(0.0766304 -0.00256878 -0.00248172)
(0.0752057 0.00202855 -0.00216964)
(0.0863468 -0.00197672 -0.00291243)
(0.088212 -0.000103 -0.00372484)
(0.0876156 -0.00078435 -0.00334903)
(0.0871067 -0.000374545 -0.00334085)
(0.0872452 -0.000205337 -0.0033328)
(0.0877905 0.000285029 -0.00335037)
(0.0884921 -0.000341526 -0.00369796)
(0.0864333 0.00163559 -0.00291541)
(0.0760995 -0.00226162 -0.00214593)
(0.0744024 0.00168611 -0.00187346)
(0.0856861 -0.00188166 -0.00260765)
(0.0879573 -0.000104059 -0.00347682)
(0.0873408 -0.000881358 -0.0030997)
(0.0868875 -0.000414943 -0.00310621)
(0.0870633 -0.000347188 -0.00308829)
(0.0875833 0.000206459 -0.00309122)
(0.0883542 -0.000502243 -0.00347132)
(0.0858273 0.00142264 -0.00263382)
(0.0756271 -0.0019983 -0.00184637)
(0.0735561 0.00136388 -0.00161092)
(0.0850719 -0.00181152 -0.00235458)
(0.0876987 -0.00015685 -0.00326691)
(0.0870804 -0.00100414 -0.00287568)
(0.0866808 -0.000486269 -0.00290003)
(0.0868969 -0.000513464 -0.00287683)
(0.0874008 0.000104567 -0.00284978)
(0.0882458 -0.000652842 -0.00326742)
(0.0853108 0.00120244 -0.00238378)
(0.0752232 -0.00178561 -0.00158849)
(0.0726387 0.00106764 -0.00139099)
(0.0844995 -0.00177389 -0.0021784)
(0.0874322 -0.000251573 -0.00307991)
(0.0868062 -0.00115872 -0.00267752)
(0.0864913 -0.000599076 -0.00270885)
(0.0867471 -0.000714537 -0.00267854)
(0.0872241 -3.79737e-05 -0.00264386)
(0.08817 -0.000810573 -0.003084)
(0.0848777 0.000973631 -0.0021696)
(0.0748909 -0.00161657 -0.00136655)
(0.0716396 0.000793866 -0.00121658)
(0.0839793 -0.0017873 -0.00202147)
(0.0871396 -0.000404969 -0.00291009)
(0.0865263 -0.00135789 -0.00250309)
(0.0863095 -0.000766119 -0.00254419)
(0.0866055 -0.000963812 -0.00251079)
(0.0870833 -0.000230861 -0.00246482)
(0.0881352 -0.000992341 -0.00291791)
(0.0845522 0.000731752 -0.00200051)
(0.0746262 -0.00148257 -0.00117233)
(0.0705339 0.000524382 -0.00107887)
(0.0834791 -0.00186559 -0.00185963)
(0.0868218 -0.000632695 -0.00275003)
(0.0862434 -0.00161867 -0.00234685)
(0.086138 -0.00100834 -0.00240409)
(0.0864868 -0.00126874 -0.00237298)
(0.0869842 -0.000483617 -0.00230213)
(0.0881476 -0.00121084 -0.00275942)
(0.0843622 0.000473416 -0.00184396)
(0.07445 -0.00138184 -0.00100058)
(0.0692772 0.000238 -0.000964677)
(0.0829717 -0.00202078 -0.0016963)
(0.0864685 -0.000949152 -0.00259194)
(0.0859472 -0.00195997 -0.0022147)
(0.0859828 -0.00134624 -0.00227073)
(0.0864002 -0.00164912 -0.00225113)
(0.0869311 -0.000817975 -0.0021577)
(0.0882285 -0.00147844 -0.00262303)
(0.0843094 0.000192379 -0.00169785)
(0.0743887 -0.00131553 -0.00085015)
(0.0678039 -8.26208e-05 -0.000863585)
(0.0824205 -0.00227215 -0.00154257)
(0.0860546 -0.00137565 -0.00243977)
(0.085634 -0.00240405 -0.00209806)
(0.0858303 -0.00180331 -0.0021408)
(0.0863423 -0.00213186 -0.00213997)
(0.086935 -0.00125482 -0.00202854)
(0.0883975 -0.00181463 -0.00250062)
(0.0844017 -0.000127968 -0.00156235)
(0.0744739 -0.00128335 -0.000717601)
(0.0660282 -0.000451858 -0.000769301)
(0.081788 -0.00264447 -0.00140033)
(0.0855695 -0.00194004 -0.00229633)
(0.0852916 -0.00298081 -0.00198771)
(0.0856751 -0.00241156 -0.00201029)
(0.0863206 -0.00274729 -0.00203079)
(0.0870043 -0.00181591 -0.00190787)
(0.0886755 -0.00224548 -0.00235456)
(0.0846568 -0.000515118 -0.00143844)
(0.0747394 -0.00128894 -0.000595826)
(0.0638391 -0.000882498 -0.000675203)
(0.0810135 -0.00316289 -0.00126593)
(0.0849854 -0.00268062 -0.00214885)
(0.0849038 -0.00373299 -0.00187843)
(0.0854954 -0.00321297 -0.00188055)
(0.0863372 -0.00353603 -0.00192006)
(0.0871527 -0.00253971 -0.0017928)
(0.0890717 -0.00280451 -0.00219825)
(0.0851172 -0.000992883 -0.00132271)
(0.0752278 -0.00133962 -0.000477803)
(0.0610983 -0.00138661 -0.000571964)
(0.0800235 -0.00386001 -0.00112983)
(0.0842708 -0.00365088 -0.00198385)
(0.0844437 -0.00471709 -0.00176879)
(0.0852762 -0.00426028 -0.00175158)
(0.0863909 -0.00454923 -0.00180565)
(0.0873977 -0.00347982 -0.00167972)
(0.0895978 -0.00353383 -0.00204582)
(0.0858256 -0.00158666 -0.00121042)
(0.0759916 -0.00144627 -0.000357809)
(0.057633 -0.00197192 -0.000445956)
(0.0786805 -0.00477487 -0.000978246)
(0.0833783 -0.00491641 -0.00180145)
(0.0838874 -0.0059977 -0.00165203)
(0.0850063 -0.00561794 -0.00161663)
(0.0864754 -0.00585267 -0.00168112)
(0.0877559 -0.00470121 -0.00156155)
(0.0902903 -0.00448949 -0.00188798)
(0.0868383 -0.0023365 -0.00109428)
(0.0771022 -0.00162312 -0.000227673)
(0.0532416 -0.00263315 -0.000279173)
(0.0767994 -0.00594324 -0.000786147)
(0.0822483 -0.00655329 -0.00158876)
(0.0831908 -0.00765296 -0.00151683)
(0.0846501 -0.00736641 -0.00146565)
(0.0865696 -0.00753315 -0.00153539)
(0.0882386 -0.00629022 -0.00142771)
(0.091176 -0.0057495 -0.0017156)
(0.0882248 -0.00329938 -0.000965536)
(0.0786536 -0.00189236 -7.72681e-05)
(0.0477028 -0.00334013 -5.0758e-05)
(0.0740785 -0.00737795 -0.000531005)
(0.0807806 -0.00863629 -0.00132332)
(0.0823017 -0.0097785 -0.00134448)
(0.0841601 -0.00960429 -0.00128425)
(0.0866346 -0.0097024 -0.00135555)
(0.0888456 -0.00836381 -0.00126527)
(0.0923045 -0.00742336 -0.00151511)
(0.0900747 -0.00455598 -0.000810627)
(0.0807762 -0.00228591 0.000107912)
(0.0408135 -0.00401823 0.000256895)
(0.0701358 -0.00904287 -0.000184733)
(0.0787866 -0.0112113 -0.000978168)
(0.0811224 -0.0124814 -0.0011113)
(0.083452 -0.0124507 -0.00105391)
(0.0866006 -0.0125034 -0.00112039)
(0.0895574 -0.0110817 -0.00105289)
(0.0937125 -0.00967152 -0.00126896)
(0.0925017 -0.00622856 -0.000612144)
(0.0836478 -0.00285673 0.000346299)
(0.0324613 -0.00451497 0.000640449)
(0.0644864 -0.010798 0.000272112)
(0.0759469 -0.0142423 -0.000519859)
(0.0794927 -0.0158621 -0.000782556)
(0.0823963 -0.01605 -0.000751362)
(0.0863396 -0.0161205 -0.000807076)
(0.0903035 -0.0146668 -0.000765066)
(0.0954354 -0.0127333 -0.000951039)
(0.0956562 -0.00850685 -0.000343548)
(0.0875419 -0.00368455 0.000665317)
(0.0227406 -0.00456849 0.00103734)
(0.0566018 -0.0123286 0.000818466)
(0.0716777 -0.0175138 7.5822e-05)
(0.0770814 -0.0199559 -0.000310322)
(0.0807798 -0.0205716 -0.000337747)
(0.0856478 -0.0207941 -0.000383179)
(0.090945 -0.0194265 -0.000366063)
(0.097487 -0.0169752 -0.000527027)
(0.0997458 -0.0117138 2.99726e-05)
(0.0928527 -0.00492522 0.00110348)
(0.0121633 -0.00375899 0.00123022)
(0.0461454 -0.0130438 0.00131882)
(0.065172 -0.0204944 0.000822868)
(0.0732668 -0.0246223 0.000382152)
(0.0782184 -0.0261976 0.000246604)
(0.0841854 -0.0268539 0.000187724)
(0.0911817 -0.0258069 0.000189085)
(0.0997602 -0.0229788 5.23208e-05)
(0.105016 -0.0163956 0.000562665)
(0.10037 -0.00680538 0.00171087)
(0.00168063 -0.00136674 0.00114837)
(0.0329117 -0.0120388 0.00148409)
(0.0550906 -0.0222521 0.00158928)
(0.0667882 -0.0293102 0.0013678)
(0.0739585 -0.0329307 0.00113527)
(0.081446 -0.0346641 0.000985877)
(0.0905779 -0.0344069 0.000951178)
(0.102079 -0.0316699 0.000845861)
(0.111859 -0.0236493 0.00133028)
(0.111155 -0.0100408 0.00259667)
(-0.00307901 0.00212577 0.00193792)
(0.0190982 -0.00833265 0.00199991)
(0.0409162 -0.0215035 0.00253605)
(0.0560415 -0.033035 0.00264853)
(0.0665053 -0.0405281 0.00239357)
(0.0762853 -0.0446976 0.00209936)
(0.0879843 -0.0461453 0.00198629)
(0.103444 -0.0444745 0.00190863)
(0.119969 -0.0355113 0.00241862)
(0.129088 -0.015252 0.00383569)
(-0.00581289 0.0004771 0.000920599)
(0.00124703 -0.00466298 0.00246153)
(0.0204215 -0.0172384 0.00420888)
(0.0386452 -0.0327973 0.00488192)
(0.0536078 -0.0462905 0.00457164)
(0.0673514 -0.0559999 0.00386601)
(0.0826463 -0.061886 0.00342039)
(0.103537 -0.0637074 0.00327522)
(0.12948 -0.0566417 0.00393094)
(0.156461 -0.0285352 0.00571803)
(-0.011627 -0.00405705 -0.00164818)
(-0.0140512 -0.0134427 -0.0016928)
(-0.00355451 -0.0223842 0.00116583)
(0.0125477 -0.0335912 0.00472551)
(0.0295997 -0.0484296 0.00657474)
(0.0476107 -0.0644459 0.00661098)
(0.0669143 -0.0800049 0.00589545)
(0.0958693 -0.0899742 0.00524952)
(0.128847 -0.101668 0.00560043)
(0.217752 -0.0472062 0.00835741)
(0.0965624 -0.0106753 0.00180516)
(0.101354 -0.00136529 0.00135965)
(0.100931 -0.00122223 0.00147056)
(0.100655 -0.000460351 0.0014455)
(0.100611 -0.000113766 0.00145926)
(0.100611 0.000101039 0.00145924)
(0.100655 0.000448951 0.0014453)
(0.100933 0.00121278 0.00146969)
(0.101361 0.00135589 0.00136058)
(0.0965652 0.0107347 0.00181157)
(0.0951625 -0.00524589 0.00251684)
(0.108517 -0.00240856 0.00239505)
(0.10623 -0.00200063 0.00248685)
(0.105026 -0.000793924 0.00243441)
(0.104788 -0.000246103 0.00246902)
(0.104789 0.00020776 0.00246853)
(0.10503 0.000758631 0.00243217)
(0.106235 0.0019655 0.00247845)
(0.108525 0.002349 0.00238387)
(0.0951622 0.00529398 0.00252011)
(0.0932773 -0.000145661 0.00251931)
(0.111452 -0.00294116 0.00291592)
(0.109114 -0.0017162 0.00285189)
(0.107512 -0.000690756 0.00279263)
(0.107141 -0.000283507 0.00283428)
(0.107145 0.000209312 0.00283407)
(0.107523 0.000622804 0.00279007)
(0.10913 0.00165385 0.00284816)
(0.111445 0.00290867 0.0029424)
(0.0933238 0.000163739 0.00251762)
(0.0910867 0.00236503 0.0024524)
(0.110992 -0.0031682 0.00312913)
(0.109801 -0.0012596 0.00305053)
(0.108255 -0.000562517 0.003016)
(0.107863 -0.000302994 0.00306299)
(0.10787 0.000189531 0.00306194)
(0.108276 0.000457164 0.00301387)
(0.109823 0.00117039 0.00304572)
(0.110839 0.00308128 0.00312278)
(0.0912551 -0.00237358 0.0024509)
(0.0894722 0.00331303 0.0023613)
(0.109854 -0.00319717 0.00314316)
(0.109689 -0.000853124 0.00316515)
(0.108349 -0.000539034 0.00317785)
(0.107953 -0.000330293 0.0032285)
(0.107968 0.000168723 0.0032292)
(0.108385 0.000388428 0.00317696)
(0.10973 0.000723916 0.00316152)
(0.109763 0.00307614 0.00312934)
(0.0896996 -0.00338541 0.00236172)
(0.0883875 0.00355898 0.00222929)
(0.108917 -0.0032104 0.00313635)
(0.109524 -0.000523449 0.00317303)
(0.108368 -0.00058906 0.00325435)
(0.107943 -0.000348545 0.00329681)
(0.107961 0.000125759 0.0032887)
(0.108422 0.000383274 0.00325219)
(0.109585 0.000347353 0.0031731)
(0.1088 0.00301428 0.00308207)
(0.0887662 -0.00365274 0.00224167)
(0.0875504 0.00345179 0.00208383)
(0.108044 -0.00320743 0.00310678)
(0.109353 -0.000288856 0.00309898)
(0.108324 -0.000666808 0.0032315)
(0.107862 -0.000348777 0.00324495)
(0.107904 4.81142e-05 0.00325344)
(0.108409 0.000395304 0.00323582)
(0.109451 3.71363e-05 0.00312629)
(0.108139 0.00295442 0.00303631)
(0.0880045 -0.00360769 0.00209649)
(0.0867821 0.0031259 0.00193143)
(0.107208 -0.00311152 0.00297437)
(0.109173 -0.000141053 0.00299737)
(0.10826 -0.000761735 0.00315445)
(0.107781 -0.000338393 0.00312886)
(0.107809 -5.63565e-05 0.00316291)
(0.108372 0.00040428 0.00315546)
(0.109271 -0.000195232 0.00299221)
(0.107507 0.00285628 0.00297435)
(0.0873646 -0.00335227 0.00194166)
(0.0859558 0.00277328 0.00176873)
(0.106618 -0.00301595 0.00284386)
(0.108983 -5.92877e-05 0.00286583)
(0.108206 -0.000877962 0.00306026)
(0.107725 -0.000332276 0.00300546)
(0.107702 -0.000182825 0.00300599)
(0.108362 0.000403349 0.00306316)
(0.109176 -0.000396661 0.00284803)
(0.107057 0.00273267 0.00288838)
(0.0867811 -0.00305887 0.00178099)
(0.0851429 0.00242564 0.00160946)
(0.106163 -0.00296355 0.00273656)
(0.108845 -2.89123e-05 0.00272782)
(0.108184 -0.00101175 0.00297967)
(0.107705 -0.000344183 0.00288891)
(0.107683 -0.000332588 0.00285648)
(0.108398 0.000394438 0.0029847)
(0.109128 -0.000574596 0.00271743)
(0.106741 0.00260846 0.00281413)
(0.0863051 -0.00281103 0.00162257)
(0.0843247 0.00211974 0.00145443)
(0.1058 -0.00292852 0.00262866)
(0.108734 -4.89994e-05 0.00260305)
(0.108153 -0.00116248 0.00288875)
(0.107702 -0.000380586 0.00277257)
(0.107691 -0.000509895 0.00272974)
(0.108448 0.000356234 0.00289182)
(0.109134 -0.000740173 0.00258973)
(0.106503 0.00246811 0.00273481)
(0.0859535 -0.00260298 0.00147385)
(0.0834812 0.0018754 0.00130203)
(0.10544 -0.00293861 0.00254004)
(0.108628 -0.000128372 0.0024808)
(0.108122 -0.00133982 0.00278614)
(0.107699 -0.000452636 0.00264851)
(0.107714 -0.000718451 0.00259418)
(0.108528 0.000283527 0.00279709)
(0.109178 -0.000904311 0.00246667)
(0.106326 0.00230322 0.0026476)
(0.0857211 -0.00243711 0.00133816)
(0.0826064 0.00162646 0.00116164)
(0.104997 -0.00298128 0.00245269)
(0.108513 -0.000270016 0.00236757)
(0.108079 -0.00155023 0.00268635)
(0.1077 -0.000574575 0.0025291)
(0.107762 -0.000961394 0.00246437)
(0.10862 0.00016814 0.00270683)
(0.109255 -0.00107597 0.00234122)
(0.106189 0.00212004 0.00256139)
(0.0856225 -0.00232242 0.00122004)
(0.0816457 0.00134639 0.00103804)
(0.104505 -0.00304084 0.002343)
(0.108362 -0.000478596 0.00226632)
(0.108019 -0.00180208 0.00258711)
(0.107698 -0.000758502 0.00242727)
(0.107826 -0.0012516 0.00235321)
(0.108729 -3.8673e-06 0.00261332)
(0.109373 -0.00126888 0.00222304)
(0.106073 0.0019027 0.00246277)
(0.0856815 -0.00222964 0.00112103)
(0.0805411 0.00103364 0.000929184)
(0.103972 -0.0031375 0.00221674)
(0.108162 -0.000764679 0.00216917)
(0.107944 -0.00211168 0.00249742)
(0.107685 -0.0010219 0.00233484)
(0.107904 -0.00160313 0.00225369)
(0.10887 -0.000248416 0.00252386)
(0.109535 -0.00149819 0.00212507)
(0.106013 0.00163397 0.00234861)
(0.0859018 -0.00215228 0.00103827)
(0.0792238 0.000689704 0.000832055)
(0.103398 -0.00330222 0.0020897)
(0.107918 -0.0011447 0.00208636)
(0.107845 -0.00250337 0.00242038)
(0.107667 -0.00138845 0.00225173)
(0.108004 -0.0020333 0.00216694)
(0.109052 -0.000584937 0.00244122)
(0.109748 -0.0017803 0.00204519)
(0.106073 0.00130618 0.00223058)
(0.0862705 -0.00209189 0.000973466)
(0.0776277 0.00030807 0.000749422)
(0.10275 -0.00355701 0.00197238)
(0.10761 -0.00164699 0.00202721)
(0.107718 -0.00300547 0.00235418)
(0.107648 -0.00188666 0.00217685)
(0.10813 -0.00256727 0.00209531)
(0.109292 -0.00103933 0.00236513)
(0.110026 -0.00213913 0.00196806)
(0.106298 0.000919364 0.00212439)
(0.0868136 -0.00206021 0.000929923)
(0.0756657 -0.000119818 0.000689795)
(0.101994 -0.00393343 0.00187507)
(0.10723 -0.00230403 0.00198731)
(0.10756 -0.00365233 0.00229915)
(0.107639 -0.00255016 0.0021162)
(0.10829 -0.00323817 0.0020393)
(0.109607 -0.00164165 0.00230108)
(0.110414 -0.00260461 0.00189365)
(0.106712 0.000460089 0.00203674)
(0.0875845 -0.00206639 0.000910512)
(0.0732553 -0.000606863 0.000663081)
(0.101052 -0.00445981 0.00180462)
(0.106765 -0.00315551 0.00196478)
(0.10737 -0.00448639 0.00226532)
(0.107646 -0.00342313 0.00208613)
(0.108498 -0.00408952 0.00200422)
(0.110018 -0.0024318 0.00225531)
(0.110963 -0.00321242 0.00184649)
(0.107366 -9.84243e-05 0.00196991)
(0.088645 -0.00211764 0.000919478)
(0.0702751 -0.00116374 0.00068351)
(0.0998544 -0.005173 0.00177714)
(0.106206 -0.00425359 0.001973)
(0.107138 -0.00556159 0.00226095)
(0.107664 -0.00456297 0.00209169)
(0.108765 -0.00517691 0.00199603)
(0.110549 -0.00346496 0.00223336)
(0.111711 -0.00400716 0.00183394)
(0.108326 -0.00079244 0.00193213)
(0.0900817 -0.0022262 0.000964189)
(0.0666165 -0.00180397 0.000780623)
(0.0982683 -0.00609364 0.00180506)
(0.10552 -0.0056614 0.00202828)
(0.106858 -0.00694484 0.00229901)
(0.107694 -0.00603925 0.00214208)
(0.109109 -0.00657316 0.00202577)
(0.111232 -0.00481445 0.00224439)
(0.112724 -0.00505469 0.00186354)
(0.109679 -0.00166808 0.00193472)
(0.0920115 -0.00240764 0.00105702)
(0.0621124 -0.00251516 0.000977261)
(0.0961771 -0.00724858 0.0019166)
(0.104666 -0.00744722 0.00214952)
(0.106514 -0.0087156 0.00239483)
(0.107731 -0.00793805 0.00225239)
(0.109542 -0.0083741 0.00211159)
(0.112106 -0.00657913 0.00230382)
(0.114072 -0.00644699 0.00194606)
(0.111545 -0.00279632 0.00199374)
(0.0945948 -0.00269148 0.00121557)
(0.0566443 -0.00326783 0.00128648)
(0.0933521 -0.00865366 0.00215646)
(0.103563 -0.00967603 0.00237218)
(0.106087 -0.0109707 0.00257235)
(0.10776 -0.0103643 0.00244335)
(0.110072 -0.0107063 0.00227562)
(0.113207 -0.00889717 0.00243222)
(0.115851 -0.0083209 0.00210106)
(0.11409 -0.00428084 0.00213235)
(0.0980566 -0.00311955 0.00146661)
(0.0500891 -0.00398722 0.00172418)
(0.0895179 -0.0102593 0.00254836)
(0.102066 -0.0123756 0.00272451)
(0.105521 -0.0138188 0.00286762)
(0.107746 -0.0134524 0.00274889)
(0.110683 -0.0137416 0.00255047)
(0.114571 -0.0119649 0.00266097)
(0.118174 -0.0108855 0.00236253)
(0.117538 -0.00628731 0.00238406)
(0.102732 -0.0037615 0.00184789)
(0.0423541 -0.00452775 0.00225474)
(0.0842972 -0.0119268 0.00308274)
(0.099902 -0.0155047 0.00324788)
(0.104705 -0.0173647 0.00332862)
(0.107608 -0.0173683 0.00320974)
(0.111321 -0.0177103 0.0029806)
(0.116207 -0.0160681 0.00303436)
(0.121164 -0.0144727 0.00277009)
(0.122219 -0.00910267 0.00279933)
(0.109111 -0.00475742 0.00241631)
(0.033452 -0.0046307 0.00271357)
(0.077267 -0.0133713 0.00369751)
(0.0966014 -0.0188661 0.0039774)
(0.103388 -0.0216778 0.00403805)
(0.107192 -0.0223277 0.00389584)
(0.111841 -0.022927 0.00362078)
(0.118037 -0.0216232 0.00360422)
(0.124913 -0.0196156 0.0033793)
(0.128554 -0.0132165 0.00344338)
(0.118123 -0.00629401 0.00325172)
(0.0236235 -0.00396954 0.00277011)
(0.0678394 -0.0140974 0.00415319)
(0.0913588 -0.0220017 0.00490584)
(0.101079 -0.026674 0.00511587)
(0.106246 -0.0285491 0.00490636)
(0.112027 -0.0297998 0.00453685)
(0.119918 -0.0292216 0.0044271)
(0.129484 -0.0271904 0.00424862)
(0.137222 -0.0196135 0.00442262)
(0.130999 -0.00904836 0.00448226)
(0.014338 -0.00203776 0.00286544)
(0.0562136 -0.013416 0.00458664)
(0.0832903 -0.0242712 0.00604579)
(0.0968577 -0.032064 0.00661923)
(0.104179 -0.0362261 0.00635194)
(0.111352 -0.038848 0.00579083)
(0.121246 -0.0396971 0.00552508)
(0.134474 -0.0385718 0.00539236)
(0.148446 -0.0302507 0.00580079)
(0.151962 -0.0134948 0.00625818)
(0.00827152 -0.00033038 0.00320303)
(0.0429042 -0.0110263 0.00549258)
(0.0716418 -0.0244381 0.00759542)
(0.0896156 -0.0365778 0.00866404)
(0.100376 -0.0449352 0.0083431)
(0.109558 -0.0505776 0.00744991)
(0.121676 -0.0541354 0.00689628)
(0.139681 -0.0558178 0.00677136)
(0.162816 -0.0490602 0.00768241)
(0.183618 -0.0255052 0.00880054)
(0.00509475 -0.0023424 0.000813118)
(0.029808 -0.010909 0.0048306)
(0.0568789 -0.024522 0.00796631)
(0.0776988 -0.0392806 0.00976986)
(0.0922299 -0.0524301 0.00982712)
(0.104423 -0.0635391 0.00878052)
(0.118055 -0.073537 0.00784031)
(0.142194 -0.0809875 0.00759436)
(0.171507 -0.0898746 0.00908455)
(0.250325 -0.0418877 0.0121076)
(0.095971 -0.0110723 0.00134698)
(0.100931 -0.00147602 0.0012162)
(0.100649 -0.00116646 0.00116067)
(0.100406 -0.000459337 0.00117278)
(0.100365 -0.000113342 0.0011785)
(0.100366 0.000101824 0.00117844)
(0.100407 0.000449337 0.00117269)
(0.100651 0.00115841 0.00116032)
(0.100935 0.00146958 0.00121685)
(0.0959725 0.0111526 0.0013493)
(0.0937463 -0.00567483 0.0019452)
(0.106231 -0.00249918 0.00198449)
(0.103707 -0.00192112 0.00190586)
(0.10253 -0.000791225 0.00193435)
(0.102292 -0.000240267 0.0019434)
(0.102293 0.000205655 0.00194323)
(0.102535 0.000760224 0.00193335)
(0.103717 0.00188786 0.00190374)
(0.10625 0.00243862 0.00198394)
(0.0937372 0.00572003 0.00194487)
(0.0920029 -0.000459859 0.00159514)
(0.109115 -0.00287808 0.00168538)
(0.106111 -0.00163004 0.00160085)
(0.104452 -0.000655862 0.00162324)
(0.1041 -0.000272203 0.00163231)
(0.104104 0.000200779 0.00163225)
(0.104464 0.000589504 0.001623)
(0.106122 0.00156726 0.00160271)
(0.109104 0.00281679 0.0016897)
(0.092058 0.000466826 0.00158682)
(0.0902764 0.00230823 0.00109652)
(0.109792 -0.00308723 0.00121283)
(0.107166 -0.00112591 0.00108015)
(0.105537 -0.000503379 0.001098)
(0.10518 -0.00029134 0.00110827)
(0.105188 0.000178896 0.00110829)
(0.105559 0.000398922 0.00109864)
(0.10719 0.00102846 0.00108033)
(0.109798 0.0030089 0.00122114)
(0.0903946 -0.00234632 0.00109284)
(0.0892495 0.00353385 0.000705132)
(0.109679 -0.00321607 0.00078631)
(0.10766 -0.0006803 0.000613526)
(0.106174 -0.000487983 0.000642697)
(0.105811 -0.000324906 0.000661232)
(0.105824 0.000162601 0.000661208)
(0.10621 0.000337931 0.000643817)
(0.107698 0.000541857 0.000611892)
(0.109696 0.00311458 0.000792384)
(0.0894604 -0.00362996 0.00071199)
(0.0887689 0.00399256 0.000397656)
(0.109507 -0.00324109 0.00043111)
(0.10817 -0.000306137 0.000212072)
(0.106773 -0.000552109 0.000253371)
(0.106363 -0.000346731 0.000275931)
(0.106382 0.000122975 0.000275447)
(0.106827 0.000349417 0.00025362)
(0.108227 0.000117032 0.00020762)
(0.10955 0.00312226 0.00043734)
(0.0890925 -0.0041213 0.000419126)
(0.0884865 0.00404581 0.000153168)
(0.109336 -0.00320247 0.000163087)
(0.108739 -1.0243e-05 -0.000119587)
(0.107392 -0.000641685 -6.52419e-05)
(0.10693 -0.000342091 -4.98712e-05)
(0.106953 4.38766e-05 -5.17927e-05)
(0.10747 0.000372187 -6.58831e-05)
(0.108827 -0.00024404 -0.000123271)
(0.109383 0.00301823 0.000163236)
(0.088987 -0.00419142 0.000187785)
(0.0882173 0.00384756 -2.25355e-05)
(0.109117 -0.00310032 -2.35758e-05)
(0.10926 0.000204101 -0.00037609)
(0.107946 -0.000744632 -0.000306551)
(0.107452 -0.000321185 -0.000306632)
(0.107489 -7.09643e-05 -0.00030306)
(0.108057 0.000387943 -0.000305027)
(0.109387 -0.000542617 -0.00037724)
(0.109263 0.00286473 -3.59565e-05)
(0.0888719 -0.00404669 1.00985e-05)
(0.0878661 0.00358059 -0.000144915)
(0.108955 -0.00300106 -0.000166888)
(0.109692 0.000345849 -0.000568435)
(0.108406 -0.000862871 -0.000481364)
(0.107903 -0.0003036 -0.000499015)
(0.107957 -0.000213728 -0.00048591)
(0.10856 0.000400386 -0.000479688)
(0.109873 -0.000794043 -0.000576486)
(0.109193 0.00270971 -0.00018903)
(0.088754 -0.00383036 -0.000116238)
(0.0874801 0.00330273 -0.00022707)
(0.108823 -0.00292213 -0.000271025)
(0.110062 0.00042602 -0.000720821)
(0.108802 -0.00099874 -0.000606735)
(0.108303 -0.000300464 -0.000642652)
(0.108376 -0.000379861 -0.000628222)
(0.109013 0.000403871 -0.00060441)
(0.110324 -0.00101483 -0.000728983)
(0.109194 0.00254677 -0.000302355)
(0.0886641 -0.00362713 -0.000202381)
(0.0870528 0.0030604 -0.000282657)
(0.108714 -0.00286635 -0.000346452)
(0.110402 0.000447986 -0.000838392)
(0.109163 -0.00115607 -0.000692951)
(0.108679 -0.000318986 -0.000749895)
(0.108774 -0.00057303 -0.000735089)
(0.109446 0.000380358 -0.000691024)
(0.110772 -0.00121929 -0.000848296)
(0.109257 0.00236445 -0.000383648)
(0.0886195 -0.00344244 -0.000259698)
(0.0865753 0.00281628 -0.000329374)
(0.108594 -0.00282962 -0.000393561)
(0.11071 0.000406271 -0.000920468)
(0.109493 -0.00133705 -0.000753067)
(0.109037 -0.000371375 -0.000828669)
(0.10916 -0.000794899 -0.000816272)
(0.109869 0.000323127 -0.000752887)
(0.111218 -0.00142007 -0.000941046)
(0.109386 0.00216752 -0.000443756)
(0.0886182 -0.00328611 -0.000296648)
(0.0860032 0.0025485 -0.000360743)
(0.108462 -0.00281549 -0.000419533)
(0.110976 0.000304663 -0.000978573)
(0.109787 -0.00154649 -0.000791777)
(0.109373 -0.000469167 -0.000886138)
(0.109533 -0.00104986 -0.000879878)
(0.110284 0.000223322 -0.000791819)
(0.111669 -0.00162215 -0.00101014)
(0.109568 0.00196283 -0.00048078)
(0.0886796 -0.00316793 -0.000323634)
(0.0853123 0.00228443 -0.000371538)
(0.108293 -0.00285518 -0.000428146)
(0.111197 0.00013809 -0.00102106)
(0.110048 -0.00179713 -0.000814904)
(0.109687 -0.000625393 -0.000925149)
(0.109898 -0.00134951 -0.000927314)
(0.110699 6.67774e-05 -0.0008139)
(0.112134 -0.00183687 -0.00106082)
(0.109799 0.00174042 -0.000493886)
(0.0888308 -0.00307386 -0.000343917)
(0.0844658 0.00201089 -0.000367127)
(0.108066 -0.00296768 -0.000418412)
(0.111367 -0.000106568 -0.00104785)
(0.110277 -0.00210403 -0.000827178)
(0.109984 -0.000858499 -0.000947525)
(0.110262 -0.00170554 -0.000960178)
(0.111125 -0.000159515 -0.000824697)
(0.112626 -0.00208144 -0.00109485)
(0.110091 0.00148176 -0.000495028)
(0.0890954 -0.00298563 -0.000351978)
(0.0834211 0.00168633 -0.000353114)
(0.107765 -0.00314269 -0.000393062)
(0.111477 -0.000446517 -0.00105631)
(0.110476 -0.00248506 -0.000828068)
(0.110265 -0.00119029 -0.0009558)
(0.110633 -0.00213338 -0.000980338)
(0.111575 -0.000473402 -0.000825099)
(0.113161 -0.00237437 -0.00111323)
(0.110471 0.00118425 -0.00049086)
(0.0894961 -0.00291255 -0.000344563)
(0.0820979 0.00130596 -0.000327259)
(0.10739 -0.0033969 -0.000355271)
(0.111519 -0.000904848 -0.0010437)
(0.110643 -0.00296589 -0.000816713)
(0.110533 -0.00164743 -0.000949127)
(0.11102 -0.00265614 -0.000987082)
(0.112065 -0.000900145 -0.0008156)
(0.113754 -0.00273362 -0.00111863)
(0.110963 0.000837407 -0.000480231)
(0.090074 -0.00286097 -0.000322706)
(0.0804254 0.00086758 -0.000286486)
(0.106908 -0.00375928 -0.000300323)
(0.111485 -0.00151456 -0.00100587)
(0.110777 -0.00357787 -0.000791374)
(0.110793 -0.00226317 -0.000927363)
(0.111432 -0.00330423 -0.000979565)
(0.112613 -0.00146804 -0.000796132)
(0.11443 -0.00318483 -0.00111262)
(0.111603 0.000419886 -0.00046146)
(0.0908705 -0.00284152 -0.0002881)
(0.0783087 0.000359774 -0.000224811)
(0.106276 -0.00425836 -0.000220855)
(0.111367 -0.00231323 -0.000937772)
(0.110877 -0.00435656 -0.000748741)
(0.111049 -0.00307835 -0.000886887)
(0.11188 -0.00411744 -0.000955125)
(0.113243 -0.00221319 -0.000764297)
(0.115227 -0.00376086 -0.0010927)
(0.112443 -9.58077e-05 -0.000434032)
(0.0919473 -0.00286194 -0.000238535)
(0.0756612 -0.000222254 -0.000128667)
(0.105425 -0.0049127 -0.000107754)
(0.111149 -0.00334683 -0.000831989)
(0.110943 -0.00534928 -0.000681485)
(0.111308 -0.00414401 -0.000820185)
(0.11238 -0.00514683 -0.000908272)
(0.11398 -0.00318567 -0.000715683)
(0.116188 -0.00450524 -0.00105359)
(0.113549 -0.00074243 -0.000395303)
(0.0933823 -0.00293485 -0.000169163)
(0.0723426 -0.000872513 2.96967e-05)
(0.104276 -0.00576942 5.43122e-05)
(0.110825 -0.00467105 -0.000678307)
(0.110976 -0.0066169 -0.000579563)
(0.111575 -0.00552226 -0.000718689)
(0.112948 -0.00645776 -0.000830916)
(0.114859 -0.0044523 -0.000643146)
(0.117369 -0.00547751 -0.000989675)
(0.115007 -0.00156333 -0.000339436)
(0.0952867 -0.00307474 -7.23959e-05)
(0.0682905 -0.001608 0.000272922)
(0.102677 -0.00684175 0.000289137)
(0.110365 -0.00634009 -0.000454255)
(0.110974 -0.00822514 -0.000425491)
(0.111854 -0.00728635 -0.000568408)
(0.113598 -0.00813414 -0.000710361)
(0.115916 -0.00610263 -0.000535752)
(0.118838 -0.0067617 -0.00088942)
(0.116933 -0.00262139 -0.000257021)
(0.0978113 -0.00330872 6.34957e-05)
(0.0633908 -0.00239922 0.000616222)
(0.100504 -0.00808977 0.000618048)
(0.109728 -0.00839716 -0.00013148)
(0.110928 -0.0102465 -0.000194996)
(0.112139 -0.00952255 -0.000350265)
(0.114339 -0.0102855 -0.000528625)
(0.117194 -0.00825987 -0.000377949)
(0.120685 -0.00848063 -0.000738914)
(0.119482 -0.00401215 -0.000134169)
(0.101175 -0.00367393 0.000254904)
(0.0575661 -0.00315223 0.00108656)
(0.097593 -0.00951354 0.00107473)
(0.10884 -0.0108685 0.000317886)
(0.110815 -0.0127666 0.000144228)
(0.112413 -0.0123342 -3.7697e-05)
(0.115162 -0.013055 -0.00026192)
(0.118724 -0.0110966 -0.000149291)