/*--------------------------------*- C++ -*----------------------------------*\
| =========                 |                                                 |
| \\      /  F ield         | OpenFOAM: The Open Source CFD Toolbox           |
|  \\    /   O peration     | Version:  4.1                                   |
|   \\  /    A nd           | Web:      www.OpenFOAM.org                      |
|    \\/     M anipulation  |                                                 |
\*---------------------------------------------------------------------------*/
FoamFile
{
    version     2.0;
    format      ascii;
    class       volScalarField;
    location    "30";
    object      T;
}
// * * * * * * * * * * * * * * * * * * * * * * * * * * * * * * * * * * * * * //

dimensions      [0 0 0 1 0 0 0];

internalField   nonuniform List<scalar> 
12000
(
0.99958
1.00358
0.999804
1.00053
1.00055
1.00055
1.00053
0.999803
1.00359
0.999555
0.994962
0.996258
0.995525
0.996976
0.997007
0.996999
0.996965
0.995524
0.996292
0.994916
0.999326
0.99416
0.997357
0.998218
0.998121
0.998119
0.998212
0.997374
0.994191
0.999258
1.00375
0.995481
1.00075
1.00041
1.00021
1.00018
1.00041
1.00077
0.99547
1.00365
1.00477
0.996106
1.0022
1.00101
1.00101
1.00091
1.00102
1.00222
0.996052
1.00463
1.00405
0.995886
1.00218
1.00054
1.00088
1.00077
1.00054
1.00218
0.995846
1.00388
1.00308
0.995682
1.00176
0.999831
1.00043
1.00041
0.99982
1.00173
0.995683
1.00288
1.00208
0.995568
1.00119
0.999084
0.999858
0.999907
0.99906
1.00116
0.995613
1.00186
1.00087
0.995267
1.00038
0.998183
0.999092
0.999176
0.998154
1.00034
0.99535
1.00064
0.999342
0.994594
0.999186
0.997014
0.998028
0.998128
0.997001
0.999167
0.994714
0.999122
0.997426
0.993389
0.997553
0.995506
0.996572
0.996692
0.995499
0.997583
0.993584
0.997234
0.994952
0.991519
0.995373
0.993507
0.994596
0.994744
0.993516
0.995484
0.991831
0.994854
0.991693
0.988815
0.992418
0.990794
0.991908
0.992093
0.990873
0.992678
0.98929
0.991773
0.987326
0.984962
0.98843
0.987103
0.988261
0.988501
0.987318
0.988931
0.98573
0.987712
0.981476
0.979625
0.9831
0.982123
0.983365
0.983688
0.982567
0.983978
0.980889
0.982389
0.97371
0.972407
0.976025
0.975492
0.976879
0.977334
0.976304
0.977515
0.97448
0.975509
0.963504
0.962834
0.966756
0.966795
0.968421
0.969079
0.968188
0.969219
0.966189
0.966761
0.950241
0.950366
0.954781
0.95557
0.957572
0.958541
0.957863
0.95876
0.955706
0.95584
0.933195
0.934395
0.939517
0.941306
0.943884
0.945322
0.944976
0.945821
0.942739
0.942467
0.911514
0.914229
0.920322
0.923457
0.926887
0.929026
0.929179
0.930115
0.927042
0.92641
0.884185
0.889037
0.896478
0.901418
0.906086
0.909253
0.910156
0.911398
0.908427
0.907506
0.850023
0.857842
0.8672
0.874531
0.880966
0.885603
0.887625
0.889469
0.886784
0.885678
0.807762
0.819536
0.831617
0.842058
0.850952
0.857656
0.861326
0.864201
0.862088
0.860939
0.75624
0.772887
0.78881
0.803179
0.815369
0.824918
0.830974
0.835505
0.834393
0.833379
0.694785
0.716655
0.737744
0.756917
0.773355
0.78674
0.796194
0.8033
0.803812
0.803052
0.623461
0.649973
0.677405
0.702169
0.723776
0.742136
0.756295
0.767327
0.770495
0.770045
0.542494
0.572567
0.60684
0.637687
0.665245
0.689757
0.710215
0.727119
0.73483
0.733709
0.45976
0.490599
0.527883
0.563246
0.596456
0.627549
0.655596
0.680692
0.697573
0.695514
0.378748
0.406287
0.442681
0.48001
0.517519
0.554526
0.590894
0.625868
0.661542
0.655334
0.298102
0.318922
0.352734
0.390346
0.428868
0.467496
0.508923
0.549803
0.62372
0.649859
1.00359
1.00674
1.00301
1.00391
1.00387
1.00387
1.00391
1.00301
1.00678
1.00353
0.996282
0.996849
0.996379
0.998252
0.998208
0.998206
0.998237
0.996374
0.996945
0.996225
0.994193
0.989702
0.99292
0.993808
0.993605
0.993595
0.99379
0.992935
0.989788
0.99409
0.995525
0.987743
0.993369
0.99274
0.992375
0.992375
0.992719
0.993396
0.987827
0.995378
0.996161
0.987269
0.994183
0.992524
0.992293
0.992353
0.992506
0.994209
0.987374
0.995975
0.995956
0.987214
0.994365
0.99218
0.992354
0.992437
0.992156
0.994382
0.987295
0.995774
0.995773
0.98765
0.994382
0.991935
0.992556
0.992604
0.991903
0.994389
0.987686
0.995614
0.995689
0.988423
0.994488
0.991905
0.992859
0.992881
0.991865
0.994474
0.98841
0.995539
0.995427
0.989091
0.994477
0.991895
0.993052
0.993071
0.991845
0.99446
0.989055
0.995266
0.994802
0.989318
0.994118
0.991649
0.992916
0.99295
0.99159
0.994104
0.989297
0.994608
0.993658
0.988981
0.993274
0.99098
0.992303
0.992361
0.990937
0.993279
0.989003
0.993449
0.991856
0.987947
0.991804
0.989743
0.991083
0.991172
0.989743
0.991862
0.988044
0.991682
0.989235
0.985961
0.989525
0.987754
0.989086
0.989219
0.987816
0.989696
0.98622
0.989139
0.985473
0.98279
0.986202
0.98477
0.986095
0.98629
0.98494
0.986571
0.983329
0.985585
0.980218
0.978136
0.981515
0.980493
0.981841
0.982128
0.980854
0.982229
0.97912
0.980782
0.973057
0.971619
0.975111
0.974581
0.976011
0.97643
0.975264
0.976388
0.973316
0.974449
0.963476
0.962804
0.96657
0.966638
0.968242
0.968859
0.967844
0.968746
0.965638
0.966248
0.950874
0.95117
0.955407
0.956222
0.958134
0.959046
0.958247
0.958979
0.955789
0.955864
0.934557
0.936108
0.94106
0.94284
0.945248
0.946598
0.946115
0.946763
0.943475
0.943018
0.91373
0.916916
0.922902
0.925952
0.929126
0.931115
0.931104
0.931791
0.928434
0.927473
0.887432
0.892825
0.900257
0.904983
0.909286
0.9122
0.912892
0.913797
0.91046
0.909058
0.854582
0.862958
0.8724
0.879321
0.885231
0.889464
0.891188
0.892584
0.889421
0.887683
0.814109
0.826334
0.838539
0.848313
0.856443
0.862519
0.865739
0.868019
0.865274
0.863341
0.765025
0.781941
0.797856
0.811241
0.822339
0.830947
0.836303
0.840025
0.838063
0.836115
0.706618
0.728809
0.7495
0.767315
0.782239
0.794245
0.802601
0.808564
0.807907
0.806055
0.638711
0.666157
0.692641
0.715646
0.735268
0.751679
0.764155
0.773527
0.775017
0.773282
0.561961
0.593654
0.626515
0.655318
0.680415
0.702273
0.720221
0.734678
0.739834
0.737164
0.480143
0.5138
0.551666
0.585859
0.616559
0.64443
0.669056
0.690698
0.703498
0.699257
0.396814
0.42958
0.469707
0.507986
0.543591
0.577105
0.609166
0.639513
0.668641
0.658871
0.316473
0.344266
0.382733
0.422788
0.461251
0.497886
0.535568
0.571788
0.636033
0.650294
0.999816
1.00301
0.998894
0.999616
0.999575
0.999573
0.999612
0.998894
1.00306
0.999751
0.995555
0.996388
0.995988
0.99789
0.997895
0.997888
0.997867
0.995972
0.996481
0.995485
0.997404
0.992935
0.996477
0.997509
0.997334
0.997321
0.997483
0.996496
0.993031
0.997269
1.00081
0.993385
0.999359
0.998714
0.998369
0.998362
0.998689
0.999388
0.993447
1.00066
1.00227
0.994198
1.0015
0.999694
0.999586
0.999594
0.999667
1.00152
0.994226
1.00212
1.00225
0.99438
1.00201
0.999683
1.00011
1.00011
0.999654
1.00203
0.994375
1.0021
1.00184
0.994395
1.00171
0.999127
1.00007
1.00005
0.999101
1.00172
0.994366
1.00168
1.00129
0.994489
1.00119
0.998482
0.999776
0.99975
0.998462
1.0012
0.994443
1.00113
1.00049
0.994467
1.00051
0.997793
0.999287
0.999275
0.997775
1.00052
0.994405
1.00033
0.999307
0.994094
0.999525
0.996903
0.998498
0.99851
0.996883
0.99954
0.994046
0.999161
0.997698
0.993227
0.998107
0.995659
0.99729
0.997331
0.995652
0.998149
0.993231
0.997557
0.995538
0.991726
0.99614
0.993931
0.995548
0.995625
0.993953
0.996239
0.991828
0.995439
0.99262
0.989392
0.993464
0.991542
0.993123
0.993248
0.991621
0.993668
0.989675
0.992628
0.98865
0.985995
0.989839
0.988257
0.989805
0.989996
0.988441
0.990232
0.986559
0.988901
0.983291
0.981217
0.984961
0.983788
0.985331
0.98561
0.984154
0.98568
0.982232
0.98399
0.976143
0.974683
0.978478
0.977793
0.979388
0.979794
0.978465
0.979737
0.976421
0.977604
0.966707
0.965966
0.969983
0.96989
0.971624
0.972216
0.971051
0.972097
0.968834
0.969441
0.954401
0.954566
0.959002
0.959643
0.961644
0.962511
0.961566
0.962436
0.959172
0.959188
0.93855
0.939899
0.945
0.946572
0.949019
0.950291
0.949657
0.950425
0.947135
0.946562
0.918371
0.921302
0.927377
0.930156
0.933297
0.935162
0.934977
0.93576
0.932448
0.931328
0.892987
0.898041
0.905484
0.90984
0.91401
0.916733
0.917204
0.918176
0.914899
0.913298
0.861398
0.869304
0.878629
0.885044
0.890686
0.894628
0.896055
0.89747
0.89435
0.892367
0.822588
0.834186
0.846088
0.855162
0.862841
0.868489
0.87129
0.873507
0.870755
0.868523
0.775571
0.791747
0.80712
0.819556
0.829962
0.837946
0.842701
0.846227
0.844157
0.841841
0.719682
0.741109
0.760981
0.777564
0.791483
0.802587
0.810081
0.815634
0.814694
0.812381
0.654823
0.68163
0.706979
0.728494
0.746737
0.761856
0.773087
0.781718
0.782623
0.780285
0.581793
0.613329
0.644709
0.671753
0.695022
0.71506
0.731222
0.74445
0.748526
0.744992
0.503153
0.537633
0.57449
0.607057
0.635584
0.661049
0.683199
0.702925
0.713838
0.708089
0.422404
0.457227
0.49779
0.535173
0.568534
0.599153
0.628049
0.655687
0.681994
0.669275
0.342986
0.375328
0.416772
0.456955
0.49333
0.526778
0.560837
0.593456
0.654677
0.662901
1.00055
1.00391
0.999617
1.00039
1.00036
1.00035
1.00039
0.999614
1.00397
1.00048
0.997008
0.998265
0.997894
1.00001
1.00003
1.00002
0.999983
0.997874
0.998361
0.996936
0.998275
0.993826
0.997515
0.998799
0.99862
0.998605
0.99877
0.997536
0.993922
0.998126
1.00049
0.992755
0.998717
0.998165
0.997778
0.997766
0.998141
0.998746
0.992804
1.00033
1.00109
0.992553
0.999698
0.997824
0.997659
0.997655
0.997802
0.999723
0.99257
1.00092
1.00063
0.992211
0.99968
0.997165
0.997534
0.997541
0.997141
0.999698
0.992235
1.00042
0.999932
0.991941
0.999116
0.99627
0.997145
0.99716
0.996245
0.999119
0.991972
0.999706
0.999183
0.991891
0.998468
0.99543
0.996644
0.996669
0.995403
0.998455
0.991902
0.998977
0.998285
0.991853
0.997773
0.994683
0.996095
0.996136
0.994654
0.997757
0.991857
0.998081
0.997134
0.991572
0.996872
0.993871
0.995385
0.995447
0.993838
0.996863
0.9916
0.996912
0.995634
0.990869
0.995617
0.992805
0.994353
0.994442
0.992772
0.995633
0.990953
0.995402
0.993631
0.989593
0.993873
0.99132
0.992853
0.992975
0.991306
0.993947
0.989771
0.993418
0.990911
0.987541
0.991456
0.989222
0.990716
0.990883
0.989256
0.991643
0.98787
0.990788
0.98719
0.984459
0.988128
0.986267
0.987726
0.987953
0.986397
0.988504
0.985027
0.987294
0.982124
0.980034
0.983585
0.982162
0.983613
0.983925
0.982462
0.984275
0.980996
0.982666
0.9753
0.9739
0.97748
0.976569
0.978063
0.978495
0.977152
0.978677
0.975511
0.976593
0.966232
0.965626
0.969403
0.969104
0.970723
0.971332
0.970144
0.971406
0.968281
0.968767
0.954356
0.954711
0.958883
0.959334
0.9612
0.96207
0.961092
0.962135
0.958993
0.958884
0.939021
0.940585
0.945394
0.946786
0.949069
0.950323
0.949642
0.950538
0.947346
0.946655
0.919475
0.922614
0.928358
0.930948
0.933887
0.935702
0.93545
0.936314
0.933072
0.931832
0.894872
0.900092
0.907151
0.911282
0.915197
0.917824
0.918198
0.919198
0.915955
0.914227
0.86427
0.872244
0.881121
0.887235
0.892549
0.896328
0.897609
0.898987
0.895856
0.893739
0.826722
0.838237
0.84959
0.858242
0.865493
0.870878
0.87346
0.875559
0.872732
0.870354
0.781319
0.797209
0.811886
0.823731
0.833569
0.841148
0.845574
0.848873
0.846641
0.844158
0.727424
0.748351
0.767345
0.783134
0.796305
0.806805
0.813803
0.818986
0.817754
0.815239
0.664903
0.69109
0.715387
0.735901
0.75317
0.767414
0.777904
0.785963
0.786391
0.783775
0.59443
0.625433
0.655689
0.68159
0.703632
0.722441
0.737512
0.749896
0.753248
0.749314
0.517927
0.552365
0.58841
0.619904
0.646983
0.670813
0.691426
0.709957
0.719853
0.713396
0.43831
0.474003
0.514609
0.551226
0.583001
0.611598
0.638516
0.664604
0.689782
0.67608
0.358899
0.393202
0.435831
0.475511
0.510012
0.541012
0.572771
0.603471
0.664079
0.670789
1.00056
1.00387
0.999577
1.00036
1.00032
1.00032
1.00035
0.999573
1.00393
1.00049
0.997041
0.998225
0.997904
1.00004
1.00005
1.00003
1.00001
0.997882
0.998329
0.996969
0.998184
0.99363
0.997349
0.998631
0.998425
0.99841
0.998597
0.997369
0.99373
0.998039
1.00026
0.992431
0.998398
0.997795
0.997367
0.997354
0.997766
0.998422
0.992472
1.00011
1.001
0.992415
0.999626
0.997684
0.997483
0.997477
0.997658
0.999644
0.99242
1.00084
1.00086
0.992497
1.00014
0.997569
0.997933
0.997934
0.997541
1.00014
0.992499
1.00066
1.00046
0.992671
1.00008
0.99719
0.998102
0.998108
0.997159
1.00006
0.992655
1.00027
0.999938
0.992939
0.99976
0.996702
0.997984
0.998001
0.996665
0.999733
0.992892
0.999775
0.999223
0.993086
0.999255
0.996166
0.997669
0.997704
0.996124
0.999233
0.993042
0.999046
0.9982
0.992905
0.998452
0.995466
0.997089
0.997147
0.995419
0.998445
0.992893
0.998005
0.996784
0.99224
0.997224
0.99444
0.996107
0.996195
0.994394
0.997259
0.992297
0.996564
0.994825
0.990956
0.995458
0.992939
0.994596
0.99472
0.992913
0.995567
0.991112
0.994624
0.992114
0.988873
0.992997
0.990793
0.992412
0.99258
0.990815
0.993222
0.989171
0.992029
0.988387
0.985752
0.989615
0.987779
0.989358
0.989589
0.987896
0.990028
0.986289
0.988541
0.98332
0.981292
0.985021
0.983617
0.985181
0.985498
0.983903
0.985747
0.982232
0.9839
0.976513
0.975132
0.978875
0.977975
0.979576
0.980014
0.978546
0.980105
0.976734
0.977821
0.967486
0.966852
0.970775
0.970479
0.972196
0.97281
0.971504
0.972803
0.969503
0.970005
0.955682
0.95596
0.96026
0.960704
0.962655
0.963527
0.962439
0.96352
0.960233
0.960151
0.940458
0.9419
0.946815
0.948182
0.950534
0.951785
0.951001
0.951938
0.948627
0.94797
0.921075
0.924048
0.929871
0.932413
0.935395
0.937198
0.936849
0.937752
0.934417
0.933216
0.896714
0.901716
0.908816
0.912869
0.916794
0.919391
0.919665
0.920701
0.917388
0.915702
0.866467
0.874155
0.883014
0.88901
0.894286
0.898008
0.899179
0.900583
0.8974
0.895324
0.829418
0.840557
0.851804
0.860286
0.867434
0.872723
0.875173
0.877277
0.874408
0.872068
0.784681
0.80009
0.814536
0.826147
0.835804
0.843228
0.847481
0.850753
0.848473
0.846022
0.731618
0.751971
0.770578
0.786056
0.798954
0.809213
0.815971
0.821075
0.819775
0.817277
0.670043
0.695629
0.719376
0.739491
0.756387
0.770278
0.780427
0.788325
0.788642
0.786014
0.600498
0.631
0.660603
0.686021
0.707585
0.725902
0.740496
0.752601
0.755774
0.751757
0.524575
0.558813
0.594305
0.625291
0.651797
0.674987
0.694965
0.713063
0.722685
0.716011
0.444954
0.4809
0.521304
0.557486
0.588631
0.616476
0.64263
0.66811
0.692939
0.678668
0.365269
0.40016
0.443046
0.482389
0.516192
0.546352
0.5773
0.607213
0.66759
0.673522
1.00056
1.00387
0.999576
1.00036
1.00032
1.00031
1.00035
0.999573
1.00393
1.00049
0.99704
0.998224
0.997902
1.00004
1.00004
1.00003
1.00001
0.997883
0.998326
0.996966
0.998185
0.993626
0.997346
0.998627
0.99842
0.998405
0.998595
0.997368
0.993726
0.998035
1.00027
0.992423
0.998395
0.997791
0.997362
0.997348
0.997763
0.99842
0.992469
1.00011
1.00101
0.992405
0.999627
0.997683
0.997481
0.997471
0.997655
0.999644
0.992419
1.00083
1.00087
0.992489
1.00014
0.997567
0.997931
0.997928
0.997539
1.00015
0.992497
1.00066
1.00049
0.992651
1.00007
0.997186
0.998098
0.998104
0.997158
1.00006
0.992649
1.00027
0.999994
0.992905
0.999752
0.996693
0.997978
0.997997
0.996661
0.99973
0.992885
0.999781
0.999263
0.99306
0.999254
0.996154
0.997663
0.997699
0.996117
0.999231
0.993042
0.999041
0.998207
0.992894
0.998459
0.995454
0.997083
0.997143
0.995413
0.998446
0.992905
0.99798
0.996767
0.992238
0.997237
0.994427
0.996101
0.99619
0.99439
0.997255
0.992308
0.996541
0.994803
0.990954
0.99547
0.992924
0.994587
0.994714
0.992907
0.995557
0.991117
0.99461
0.992085
0.988869
0.993004
0.990777
0.9924
0.992573
0.990806
0.993206
0.989171
0.992027
0.988354
0.985745
0.989615
0.987761
0.989342
0.989577
0.987882
0.990002
0.986281
0.988554
0.983285
0.981276
0.985015
0.983594
0.98516
0.98548
0.983882
0.985712
0.982218
0.983914
0.976466
0.975107
0.978859
0.977946
0.979549
0.979989
0.978515
0.980066
0.976716
0.97782
0.967424
0.966815
0.970745
0.97044
0.97216
0.972775
0.971466
0.972758
0.96948
0.969985
0.955601
0.955907
0.960214
0.960651
0.962605
0.963479
0.96239
0.963465
0.960202
0.960114
0.940351
0.941824
0.946746
0.948111
0.950465
0.951719
0.950938
0.951867
0.948581
0.94792
0.920936
0.92394
0.929772
0.932316
0.935303
0.93711
0.936766
0.93766
0.934349
0.933149
0.89653
0.901564
0.908676
0.912738
0.91667
0.919273
0.919557
0.920581
0.917289
0.915612
0.866221
0.873943
0.882819
0.888832
0.894118
0.897849
0.899035
0.900426
0.897262
0.895201
0.829082
0.840267
0.851537
0.860043
0.867206
0.872506
0.874977
0.877069
0.874217
0.871902
0.784223
0.799696
0.814179
0.825819
0.835496
0.842934
0.847214
0.850479
0.848214
0.845796
0.731011
0.751444
0.770107
0.785617
0.798539
0.808819
0.815612
0.820716
0.81943
0.816971
0.669284
0.694945
0.718767
0.738919
0.755841
0.769758
0.779945
0.787854
0.788192
0.785608
0.599638
0.630171
0.659845
0.685299
0.706884
0.725225
0.739862
0.751982
0.755189
0.751222
0.523713
0.557901
0.593425
0.62443
0.650945
0.674153
0.694173
0.712292
0.721964
0.715375
0.44423
0.480014
0.520347
0.556502
0.587628
0.615466
0.64164
0.667134
0.691994
0.677844
0.364619
0.399348
0.442115
0.481411
0.515191
0.545338
0.576296
0.606237
0.66663
0.672789
1.00054
1.00391
0.999615
1.00039
1.00035
1.00035
1.00038
0.999611
1.00396
1.00047
0.997007
0.998255
0.997881
0.999997
1.00002
1.00001
0.999966
0.997859
0.998353
0.996924
0.99827
0.993822
0.997508
0.99879
0.998604
0.998591
0.998758
0.997525
0.993912
0.998129
1.00051
0.992743
0.998715
0.998161
0.997768
0.997757
0.998138
0.998745
0.992794
1.00034
1.00116
0.992505
0.999699
0.997824
0.997657
0.997649
0.997806
0.999726
0.992557
1.00095
1.00069
0.992155
0.999694
0.997165
0.997539
0.997536
0.997147
0.999696
0.992186
1.00049
0.999945
0.991909
0.999142
0.996268
0.997154
0.997158
0.996245
0.999118
0.9919
0.999777
0.999165
0.991879
0.998501
0.995428
0.996655
0.996671
0.995398
0.998462
0.991841
0.999006
0.998251
0.991854
0.997804
0.99468
0.996108
0.99614
0.994644
0.997765
0.99181
0.998079
0.997091
0.991579
0.996897
0.993863
0.995395
0.99545
0.993822
0.996874
0.991556
0.996901
0.995588
0.99088
0.995633
0.992793
0.994359
0.994441
0.992755
0.99565
0.990909
0.995381
0.99359
0.989605
0.993879
0.991305
0.992854
0.992972
0.991285
0.993967
0.989724
0.993391
0.990867
0.987552
0.991455
0.989203
0.990711
0.990876
0.98923
0.991667
0.987822
0.99075
0.987136
0.984463
0.988116
0.986244
0.987712
0.987939
0.986364
0.98853
0.984982
0.987236
0.982059
0.980025
0.983558
0.98213
0.983588
0.983901
0.982418
0.984296
0.980952
0.982587
0.975215
0.97387
0.977429
0.97652
0.978022
0.978458
0.977094
0.978684
0.975463
0.976498
0.966116
0.965567
0.969321
0.969032
0.970661
0.971277
0.970068
0.971391
0.96822
0.96865
0.954194
0.954607
0.958763
0.959229
0.961107
0.961989
0.960993
0.962089
0.958912
0.958741
0.938787
0.94042
0.945223
0.946634
0.948934
0.950205
0.949511
0.950453
0.947235
0.946485
0.919137
0.922359
0.928112
0.930732
0.933692
0.935533
0.935276
0.936178
0.932917
0.931624
0.894388
0.899707
0.906801
0.910976
0.914921
0.917582
0.917962
0.918995
0.915742
0.913962
0.863587
0.871681
0.880626
0.886804
0.89216
0.895982
0.897284
0.898693
0.89556
0.893395
0.825766
0.837428
0.848894
0.857636
0.864944
0.870386
0.873007
0.87514
0.872321
0.869903
0.780006
0.796071
0.810914
0.822884
0.8328
0.840453
0.844941
0.848287
0.846071
0.843564
0.725664
0.746781
0.766008
0.781962
0.795236
0.805831
0.812916
0.81817
0.816971
0.814447
0.662643
0.689008
0.713589
0.734309
0.751708
0.766072
0.776675
0.784837
0.785334
0.782727
0.591764
0.622845
0.653365
0.679489
0.701682
0.720627
0.735835
0.748344
0.751819
0.747912
0.515105
0.549423
0.585609
0.617285
0.644515
0.668489
0.689252
0.707922
0.718022
0.711694
0.435618
0.47091
0.511398
0.548078
0.579966
0.608678
0.635705
0.661878
0.687261
0.673743
0.356314
0.390161
0.432505
0.472173
0.506789
0.537924
0.569786
0.600565
0.661358
0.668735
0.999816
1.00301
0.998893
0.999615
0.999574
0.999572
0.999609
0.998889
1.00306
0.999749
0.995556
0.996385
0.995972
0.997872
0.99788
0.997872
0.997846
0.995954
0.99648
0.99548
0.997419
0.992948
0.996494
0.997527
0.997351
0.99734
0.997501
0.996517
0.993052
0.997289
1.00083
0.993385
0.999381
0.998733
0.998391
0.998382
0.998712
0.999414
0.993446
1.00068
1.00229
0.994179
1.00152
0.999704
0.999604
0.999594
0.999685
1.00154
0.994195
1.00216
1.00226
0.994348
1.00202
0.999674
1.0001
1.0001
0.999659
1.00204
0.994334
1.00213
1.00183
0.994356
1.00169
0.999102
1.00002
1.00003
0.99908
1.00171
0.994339
1.00166
1.00126
0.994453
1.00117
0.998451
0.999696
0.999719
0.998417
1.00118
0.994419
1.00109
1.00044
0.994432
1.00048
0.997755
0.999194
0.999234
0.997712
1.00049
0.994379
1.00029
0.999277
0.994055
0.999478
0.996862
0.998402
0.998458
0.996812
0.999496
0.994007
0.999128
0.997667
0.993187
0.998051
0.995621
0.997195
0.997274
0.995574
0.998099
0.993174
0.997538
0.995487
0.991683
0.996085
0.993896
0.995455
0.995567
0.993868
0.996193
0.991762
0.995418
0.992557
0.989342
0.993406
0.991508
0.99303
0.993185
0.991532
0.993627
0.989608
0.992596
0.988581
0.98593
0.989771
0.988218
0.989707
0.989922
0.988347
0.990185
0.98649
0.988847
0.983213
0.981132
0.984875
0.983731
0.985223
0.985523
0.984052
0.985623
0.982158
0.983911
0.976024
0.97458
0.97837
0.97771
0.979266
0.97969
0.978347
0.979663
0.976336
0.977504
0.966523
0.965834
0.969842
0.969771
0.971477
0.972086
0.97091
0.97199
0.968731
0.96931
0.954142
0.954367
0.958805
0.959471
0.961456
0.962342
0.961392
0.962282
0.959035
0.959023
0.938173
0.939596
0.944717
0.946323
0.948766
0.950064
0.949432
0.950213
0.946944
0.946349
0.917824
0.920849
0.92697
0.929798
0.932951
0.934852
0.934679
0.935472
0.932185
0.93104
0.892188
0.897377
0.904901
0.90933
0.91353
0.916304
0.916801
0.917785
0.914538
0.912902
0.860247
0.868343
0.877796
0.884319
0.890014
0.894028
0.895499
0.896933
0.89385
0.891828
0.820947
0.832811
0.844907
0.854133
0.861898
0.867642
0.870517
0.872766
0.870063
0.867792
0.773288
0.789804
0.805454
0.818099
0.828635
0.836748
0.841619
0.845202
0.843198
0.840854
0.716592
0.738402
0.758652
0.775511
0.789616
0.800893
0.808557
0.814214
0.81337
0.811048
0.650758
0.677967
0.703793
0.725649
0.744134
0.759479
0.770946
0.779751
0.780809
0.778501
0.576811
0.608625
0.640499
0.667912
0.69147
0.711781
0.728239
0.741715
0.746042
0.742576
0.497676
0.532087
0.569294
0.602169
0.630968
0.656709
0.679184
0.699212
0.710518
0.705007
0.416591
0.450922
0.491561
0.529183
0.562777
0.593601
0.622733
0.650599
0.67737
0.664951
0.337068
0.368583
0.409752
0.450063
0.486715
0.520435
0.554701
0.587468
0.649069
0.658635
1.0036
1.00678
1.00305
1.00396
1.00392
1.00392
1.00396
1.00306
1.00684
1.00355
0.996302
0.996931
0.996463
0.998337
0.998297
0.99829
0.998319
0.996459
0.997056
0.996263
0.994198
0.98978
0.993005
0.993881
0.993677
0.993668
0.993865
0.993027
0.989903
0.994124
0.995519
0.987776
0.993401
0.992758
0.992409
0.992402
0.992739
0.993418
0.987831
0.995417
0.996152
0.987254
0.994168
0.992513
0.992347
0.992336
0.992491
0.994176
0.987254
0.99602
0.995943
0.98717
0.994317
0.992142
0.9924
0.992391
0.992133
0.994322
0.98712
0.995787
0.995755
0.987591
0.994316
0.991868
0.992547
0.992553
0.99187
0.99432
0.987512
0.995575
0.995665
0.988359
0.994415
0.991826
0.992804
0.992821
0.991813
0.994414
0.988264
0.995462
0.995395
0.989028
0.994403
0.991802
0.992969
0.993
0.991777
0.994404
0.988932
0.995175
0.994741
0.98928
0.994048
0.991549
0.992823
0.992868
0.991517
0.994054
0.98919
0.994515
0.993579
0.988963
0.993199
0.990889
0.992209
0.992276
0.990864
0.993231
0.988891
0.993369
0.991793
0.987909
0.991716
0.989659
0.990986
0.991088
0.989659
0.991818
0.987914
0.991609
0.989171
0.985902
0.989421
0.987669
0.988981
0.98913
0.987725
0.989661
0.986091
0.989051
0.985381
0.982714
0.986079
0.984675
0.985977
0.986191
0.984839
0.986526
0.983208
0.985474
0.980089
0.978032
0.981371
0.980377
0.981703
0.982011
0.980736
0.982159
0.978994
0.98065
0.972863
0.971479
0.974935
0.97443
0.975843
0.976286
0.97512
0.976293
0.97317
0.974292
0.963184
0.962606
0.966342
0.966437
0.968029
0.968674
0.967662
0.968608
0.965463
0.966049
0.950463
0.950868
0.955091
0.955944
0.957853
0.958797
0.958007
0.958774
0.955567
0.955606
0.933986
0.935647
0.940608
0.942446
0.944869
0.946256
0.945793
0.946462
0.943181
0.942681
0.912923
0.916231
0.922258
0.925397
0.928603
0.930641
0.930664
0.931363
0.928036
0.92703
0.886288
0.89183
0.899347
0.904205
0.908563
0.911544
0.912288
0.913207
0.909917
0.90847
0.852963
0.861548
0.871126
0.878231
0.884228
0.888552
0.890357
0.89178
0.888682
0.886902
0.811841
0.824365
0.836773
0.846784
0.855051
0.861255
0.864596
0.866929
0.864274
0.862308
0.761886
0.77921
0.795425
0.809105
0.820407
0.829194
0.834727
0.838549
0.836715
0.834756
0.702325
0.725023
0.746158
0.76433
0.77954
0.79181
0.800428
0.806571
0.806103
0.804279
0.632855
0.660887
0.688062
0.711518
0.731522
0.748307
0.761155
0.77083
0.77261
0.770977
0.554736
0.58676
0.620386
0.649708
0.675276
0.697628
0.716078
0.730998
0.736632
0.734156
0.472545
0.505998
0.544205
0.578755
0.60985
0.63819
0.663378
0.685626
0.699188
0.695449
0.388564
0.420614
0.460688
0.499186
0.535098
0.568909
0.601398
0.63239
0.662691
0.653611
0.30817
0.334712
0.372357
0.4122
0.450842
0.487677
0.525604
0.562198
0.627714
0.644459
0.99956
1.00353
0.999749
1.00047
1.00049
1.00049
1.00047
0.999748
1.00356
0.999499
0.994924
0.996214
0.995467
0.99691
0.996939
0.996934
0.996896
0.995464
0.996267
0.994847
0.999279
0.994079
0.997258
0.998111
0.998013
0.998006
0.998099
0.99728
0.994138
0.99912
1.0037
0.99541
1.00066
1.00033
1.00009
1.00008
1.00032
1.0007
0.99545
1.00352
1.00474
0.996064
1.00214
1.00096
1.00085
1.00086
1.00096
1.00219
0.996074
1.00458
1.00403
0.995877
1.00216
1.00053
1.00074
1.00076
1.0005
1.00218
0.995858
1.00389
1.00306
0.9957
1.00178
0.999861
1.0004
1.0004
0.99981
1.00176
0.995673
1.00294
1.00207
0.995605
1.00123
0.999123
0.9999
0.999906
0.999081
1.00119
0.995588
1.00193
1.00086
0.995316
1.00042
0.998232
0.999172
0.999188
0.998203
1.00036
0.995329
1.00071
0.999341
0.994623
0.999231
0.997068
0.998117
0.99816
0.997055
0.999187
0.994699
0.999179
0.997412
0.993404
0.997605
0.995541
0.996653
0.996725
0.99555
0.997594
0.99358
0.997276
0.994927
0.99155
0.995415
0.993522
0.994669
0.994764
0.993572
0.995473
0.991832
0.994885
0.991657
0.988847
0.992449
0.990794
0.991972
0.992105
0.990919
0.992636
0.98927
0.991783
0.987273
0.984974
0.988446
0.987088
0.988313
0.988503
0.987346
0.988883
0.985688
0.987698
0.981397
0.979606
0.983081
0.982088
0.983393
0.983674
0.98257
0.983923
0.98083
0.98235
0.973583
0.972337
0.975963
0.975424
0.976869
0.97729
0.976271
0.977431
0.974392
0.97544
0.963297
0.962684
0.966628
0.966672
0.968354
0.968993
0.968107
0.969107
0.966058
0.966652
0.949911
0.95011
0.954549
0.955363
0.957426
0.958395
0.957721
0.958612
0.955515
0.955673
0.93267
0.933984
0.939137
0.940975
0.943625
0.94509
0.944748
0.945614
0.94247
0.942216
0.910684
0.913575
0.919716
0.922937
0.926461
0.928655
0.928826
0.929805
0.926661
0.926037
0.882885
0.888009
0.895537
0.90061
0.905418
0.908668
0.90962
0.910919
0.907887
0.906964
0.848025
0.856247
0.865779
0.873301
0.87994
0.884705
0.88682
0.888747
0.886021
0.884905
0.80478
0.817108
0.829508
0.840224
0.849393
0.8563
0.860128
0.863134
0.861018
0.859857
0.751947
0.769271
0.785726
0.800485
0.813032
0.822896
0.829211
0.833955
0.832906
0.831892
0.688886
0.711446
0.733313
0.753008
0.769899
0.783747
0.793617
0.801069
0.801765
0.801041
0.615314
0.642592
0.671133
0.696595
0.718781
0.737783
0.75256
0.764134
0.767684
0.767356
0.533374
0.563583
0.598546
0.630009
0.658215
0.683523
0.70483
0.722551
0.731004
0.73018
0.451629
0.481843
0.518304
0.553625
0.587281
0.619068
0.648012
0.674142
0.692245
0.690952
0.36928
0.395598
0.43149
0.468443
0.506015
0.543359
0.580405
0.616465
0.654169
0.649675
0.288546
0.307067
0.339497
0.376898
0.415533
0.454224
0.495636
0.536756
0.612681
0.643372
0.250904
0.266811
0.295583
0.330547
0.367292
0.404267
0.445603
0.484229
0.563688
0.615026
0.22859
0.24267
0.269194
0.302009
0.336849
0.372124
0.412154
0.449926
0.524902
0.602329
0.207618
0.22036
0.244851
0.275135
0.307361
0.340003
0.377401
0.414423
0.481212
0.577551
0.188163
0.199791
0.222485
0.250116
0.279341
0.308846
0.342561
0.377752
0.435019
0.534456
0.170292
0.180916
0.201965
0.226981
0.253158
0.27935
0.308859
0.34086
0.388143
0.480383
0.153996
0.163654
0.183122
0.205544
0.228641
0.251483
0.276783
0.305077
0.342924
0.422865
0.139209
0.147906
0.165759
0.185628
0.20571
0.225242
0.24643
0.270817
0.300843
0.366617
0.125815
0.133551
0.14971
0.167079
0.184265
0.200639
0.218004
0.238378
0.262106
0.314063
0.113676
0.120472
0.134852
0.149783
0.16415
0.177478
0.191233
0.207692
0.226188
0.266252
0.102668
0.108552
0.121073
0.133569
0.145047
0.155329
0.165696
0.178506
0.192599
0.222788
0.0926585
0.0976288
0.108192
0.118164
0.126756
0.134162
0.141577
0.151111
0.161566
0.183713
0.08349
0.0875176
0.0960039
0.103432
0.109385
0.114302
0.119266
0.125999
0.133505
0.149344
0.0750063
0.0780647
0.0844528
0.0895144
0.093209
0.0960842
0.0990838
0.103555
0.108734
0.119798
0.0670861
0.0691967
0.0736156
0.0766215
0.0784637
0.0797368
0.0812405
0.0839795
0.0873838
0.0949607
0.0596639
0.0609125
0.0635884
0.0648882
0.0652765
0.0653605
0.0657809
0.0672507
0.0693297
0.0744101
0.0527335
0.0532301
0.0544266
0.0543764
0.0536831
0.0529345
0.0526053
0.0531688
0.0542618
0.0575479
0.046292
0.0461547
0.0461544
0.0450919
0.0436443
0.0423497
0.041522
0.041442
0.0417935
0.0437559
0.0403227
0.0396881
0.0387708
0.036999
0.0350708
0.0334486
0.0323017
0.0317673
0.0315695
0.0325617
0.0348186
0.0338267
0.0322533
0.0300324
0.0278453
0.0260565
0.0247276
0.0238885
0.0233059
0.0235496
0.0297832
0.0285618
0.0265642
0.0241104
0.0218346
0.0200049
0.0185881
0.0175345
0.0166957
0.0163909
0.0252234
0.0238791
0.021654
0.0191386
0.0169019
0.0151084
0.0136644
0.0124995
0.0115349
0.0108858
0.0211432
0.0197583
0.0174644
0.0150146
0.0129046
0.011195
0.00979606
0.00862876
0.00765987
0.00685251
0.0175395
0.0161733
0.0139303
0.011637
0.0097001
0.00812555
0.00683849
0.00576087
0.00488103
0.00408831
0.0143996
0.0130925
0.0109838
0.00890623
0.00717002
0.00577042
0.0046465
0.00372307
0.00298886
0.00232161
0.0117012
0.0104795
0.00855832
0.00672115
0.00520578
0.00400764
0.00307739
0.00233525
0.00176412
0.00126161
0.00941373
0.00829329
0.00658868
0.00499566
0.00371002
0.00272475
0.00199241
0.00142618
0.0010076
0.000661363
0.00750119
0.00648894
0.00501099
0.00365593
0.00259696
0.00181801
0.00126521
0.000850959
0.000559842
0.000338119
0.00592352
0.00502111
0.00376206
0.00263466
0.00178873
0.0011941
0.000790637
0.000498113
0.000304499