/*--------------------------------*- C++ -*----------------------------------*\
| =========                 |                                                 |
| \\      /  F ield         | OpenFOAM: The Open Source CFD Toolbox           |
|  \\    /   O peration     | Version:  4.1                                   |
|   \\  /    A nd           | Web:      www.OpenFOAM.org                      |
|    \\/     M anipulation  |                                                 |
\*---------------------------------------------------------------------------*/
FoamFile
{
    version     2.0;
    format      ascii;
    class       volScalarField;
    location    "70";
    object      T;
}
// * * * * * * * * * * * * * * * * * * * * * * * * * * * * * * * * * * * * * //

dimensions      [0 0 0 1 0 0 0];

internalField   nonuniform List<scalar> 
12000
(
0.999583
1.00358
0.999807
1.00054
1.00055
1.00055
1.00053
0.999806
1.00359
0.999558
0.994979
0.996274
0.99554
0.996991
0.997021
0.997014
0.996979
0.995539
0.996307
0.994933
0.999372
0.994202
0.997396
0.998257
0.998159
0.998157
0.99825
0.997414
0.994232
0.999302
1.00385
0.995572
1.00083
1.00049
1.00029
1.00027
1.00049
1.00085
0.99556
1.00374
1.00496
0.996286
1.00237
1.00118
1.00117
1.00107
1.00118
1.00239
0.996229
1.00482
1.00441
0.996219
1.0025
1.00085
1.00118
1.00107
1.00085
1.00249
0.996173
1.00423
1.00371
0.996266
1.00232
1.00037
1.00095
1.00093
1.00035
1.00228
0.996255
1.00349
1.00314
0.996556
1.00214
0.999989
1.00075
1.00079
0.999954
1.00209
0.996577
1.00289
1.00259
0.996884
1.00192
0.999662
1.00054
1.00062
0.999612
1.00184
0.996919
1.00231
1.00208
0.997164
1.00163
0.999363
1.00033
1.00042
0.999312
1.00155
0.997198
1.00175
1.00166
0.997372
1.00134
0.999144
1.00014
1.00023
0.999067
1.00125
0.99741
1.00127
1.00135
0.99755
1.0011
0.999011
0.999983
1.00009
0.998896
1.00101
0.997585
1.0009
1.00117
0.997753
1.0009
0.998942
0.999873
0.999988
0.998807
1.00081
0.997745
1.00064
1.00109
0.997945
1.00075
0.998923
0.999801
0.99992
0.998775
1.00065
0.997891
1.00043
1.00108
0.998129
1.00065
0.998944
0.99976
0.999883
0.998783
1.00053
0.998021
1.00025
1.00117
0.998317
1.00057
0.998996
0.999743
0.999869
0.99882
1.00043
0.998138
1.0001
1.00134
0.998513
1.00052
0.999071
0.999746
0.999877
0.998876
1.00035
0.998238
0.99998
1.00158
0.998733
1.00047
0.999162
0.999766
0.999901
0.998949
1.00029
0.998316
0.999871
1.00189
0.999006
1.00042
0.999261
0.999803
0.999947
0.999041
1.00026
0.998373
0.999769
1.00221
0.999375
1.00033
0.999365
0.999858
1.00002
0.999152
1.00025
0.998406
0.999661
1.00244
0.999833
1.00019
0.999447
0.999922
1.00013
0.999283
1.00028
0.998408
0.999521
1.00238
1.00031
0.99994
0.999457
0.999975
1.00026
0.999439
1.00031
0.998359
0.999303
1.00164
1.00063
0.999486
0.999282
0.999945
1.00037
0.999612
1.00036
0.998221
0.998916
0.999556
1.00027
0.998629
0.998702
0.999647
1.00034
0.999746
1.00037
0.99793
0.998197
0.99499
0.998055
0.996762
0.997212
0.998655
0.9999
0.999715
1.00034
0.997402
0.996755
0.985556
0.991635
0.992543
0.993812
0.996094
0.998385
0.999124
1.00013
0.996609
0.994068
0.965462
0.97667
0.983084
0.986477
0.990397
0.994637
0.997316
0.999681
0.996104
0.988519
0.939437
0.956747
0.967288
0.972906
0.979089
0.986116
0.992027
0.99744
0.997842
0.981504
0.905416
0.926134
0.940237
0.949077
0.95913
0.970293
0.981878
0.992271
1.00925
0.973239
0.848709
0.866319
0.888187
0.90571
0.921228
0.935203
0.952611
0.964547
1.03251
1.02521
1.00359
1.00675
1.00301
1.00391
1.00387
1.00387
1.00391
1.00301
1.00679
1.00354
0.996298
0.996863
0.996392
0.998265
0.998221
0.998219
0.99825
0.996387
0.996959
0.99624
0.994235
0.98974
0.992956
0.993843
0.993639
0.993629
0.993825
0.99297
0.989826
0.994131
0.995617
0.987826
0.993448
0.992816
0.99245
0.99245
0.992795
0.993474
0.987909
0.995468
0.996341
0.987434
0.994339
0.992675
0.992441
0.992501
0.992655
0.994364
0.987536
0.996152
0.996289
0.987519
0.994654
0.992459
0.992628
0.99271
0.992432
0.994668
0.987594
0.9961
0.996358
0.988187
0.994892
0.992426
0.993038
0.993084
0.992389
0.994891
0.988212
0.996185
0.996679
0.989334
0.995353
0.992736
0.993675
0.993693
0.992687
0.995322
0.989299
0.996501
0.997048
0.990588
0.995896
0.993258
0.994389
0.994402
0.993189
0.995847
0.990509
0.996832
0.997382
0.991706
0.996379
0.99382
0.995045
0.995067
0.993727
0.996308
0.991606
0.997084
0.997659
0.992694
0.996788
0.994352
0.995607
0.995644
0.994246
0.996688
0.992571
0.997263
0.99792
0.993585
0.997137
0.994859
0.996091
0.996143
0.994747
0.997011
0.993425
0.997413
0.998231
0.994339
0.997447
0.995349
0.996512
0.996581
0.995217
0.997296
0.994151
0.997556
0.998558
0.994991
0.997732
0.995818
0.996882
0.996969
0.995657
0.997555
0.994767
0.997682
0.998899
0.995568
0.997978
0.996256
0.997208
0.997314
0.996066
0.997781
0.995279
0.99781
0.999264
0.996086
0.998199
0.996661
0.997497
0.997621
0.996444
0.997981
0.995691
0.997945
0.999645
0.996572
0.998397
0.997033
0.997755
0.997895
0.996791
0.998166
0.99603
0.998047
1.00002
0.997042
0.998572
0.997369
0.997984
0.998143
0.997107
0.998338
0.996304
0.998098
1.00039
0.997499
0.998707
0.997663
0.998184
0.998364
0.997387
0.998492
0.99651
0.998088
1.00071
0.997934
0.998769
0.997897
0.99835
0.998555
0.997632
0.998612
0.996639
0.998004
1.00087
0.998349
0.998731
0.998047
0.998469
0.998708
0.997834
0.998683
0.996665
0.997812
1.00069
0.998701
0.998559
0.998067
0.998509
0.998802
0.997978
0.998689
0.996551
0.997454
0.999919
0.998841
0.998158
0.997873
0.998407
0.998795
0.998035
0.9986
0.996235
0.996819
0.998102
0.998441
0.997348
0.997276
0.998004
0.99858
0.997948
0.998368
0.995625
0.99572
0.994288
0.996711
0.995675
0.995885
0.996978
0.997943
0.997608
0.997946
0.994596
0.99374
0.98651
0.991913
0.992092
0.992876
0.994636
0.996376
0.99671
0.997244
0.993087
0.990341
0.971209
0.980712
0.984346
0.986687
0.989774
0.992996
0.994748
0.996234
0.991494
0.983834
0.946858
0.961303
0.969918
0.974937
0.980178
0.985711
0.989975
0.993878
0.991846
0.975493
0.909519
0.929324
0.944251
0.95411
0.963111
0.972014
0.980745
0.988588
1.00029
0.964176
0.857593
0.877765
0.898223
0.915737
0.930676
0.943185
0.957444
0.966559
1.02346
1.00534
0.999819
1.00301
0.998896
0.999618
0.999577
0.999576
0.999614
0.998897
1.00306
0.999753
0.99557
0.996402
0.996001
0.997902
0.997907
0.9979
0.997879
0.995984
0.996495
0.9955
0.997443
0.992971
0.996511
0.997542
0.997367
0.997353
0.997516
0.99653
0.993067
0.997308
1.00089
0.993464
0.999435
0.998787
0.998441
0.998433
0.998761
0.999463
0.993525
1.00074
1.00244
0.994355
1.00165
0.999837
0.999728
0.999735
0.999809
1.00167
0.99438
1.00229
1.00257
0.994671
1.00229
0.999948
1.00038
1.00037
0.999918
1.0023
0.99466
1.00242
1.0024
0.994906
1.00219
0.999594
1.00053
1.00051
0.999563
1.00219
0.994867
1.00223
1.00224
0.995356
1.00201
0.999272
1.00055
1.00052
0.999244
1.00201
0.995289
1.00204
1.00203
0.995891
1.00186
0.999089
1.00056
1.00054
0.999053
1.00184
0.995789
1.00183
1.00177
0.996365
1.00168
0.998968
1.00052
1.00052
0.998915
1.00164
0.996242
1.00153
1.00152
0.996758
1.00145
0.998866
1.00043
1.00046
0.9988
1.00139
0.996626
1.0012
1.00133
0.99709
1.00121
0.998798
1.00031
1.00036
0.998716
1.00114
0.996951
1.00092
1.00122
0.997367
1.001
0.998771
1.00019
1.00026
0.998669
1.00091
0.997232
1.00068
1.00116
0.997618
1.00082
0.998779
1.00008
1.00017
0.998657
1.0007
0.997469
1.00049
1.00117
0.997838
1.00065
0.998812
0.999987
1.0001
0.998668
1.00052
0.997662
1.00032
1.00124
0.998034
1.0005
0.998859
0.999901
1.00003
0.998696
1.00037
0.997816
1.00017
1.00138
0.998224
1.00037
0.998917
0.999829
0.999979
0.998737
1.00025
0.997939
1.00002
1.00155
0.998424
1.00025
0.998979
0.999771
0.99994
0.998785
1.00015
0.998036
0.999865
1.00174
0.998641
1.00013
0.999036
0.999725
0.999914
0.998836
1.00007
0.998098
0.999688
1.0019
0.998869
0.999985
0.999068
0.999679
0.999893
0.998883
0.999998
0.998106
0.999481
1.00195
0.999103
0.999779
0.99905
0.999619
0.999869
0.998919
0.999918
0.998039
0.999206
1.00171
0.999299
0.999463
0.998934
0.999516
0.999824
0.998929
0.999813
0.997861
0.9988
1.00092
0.999306
0.998948
0.998635
0.999307
0.99972
0.998892
0.999655
0.997518
0.998156
0.999064
0.998788
0.998048
0.997983
0.998857
0.999472
0.998764
0.999405
0.996921
0.997093
0.995295
0.997038
0.99635
0.996642
0.9979
0.998903
0.998468
0.99904
0.995958
0.995205
0.988189
0.992697
0.99297
0.993951
0.995893
0.997626
0.997781
0.998526
0.99459
0.991976
0.975529
0.983652
0.986369
0.988768
0.991947
0.994999
0.996384
0.997983
0.993306
0.98578
0.955405
0.967592
0.974328
0.979254
0.984428
0.98951
0.993033
0.996785
0.994355
0.977844
0.925425
0.9415
0.953792
0.963169
0.971628
0.979569
0.986952
0.99415
1.00472
0.967443
0.882213
0.900783
0.91942
0.934998
0.947777
0.958054
0.969871
0.97709
1.03225
1.00914
1.00055
1.00392
0.999619
1.00039
1.00036
1.00036
1.00039
0.999617
1.00397
1.00048
0.997023
0.998278
0.997906
1.00002
1.00004
1.00003
0.999995
0.997886
0.998374
0.996951
0.998313
0.993861
0.997549
0.998832
0.998652
0.998637
0.998803
0.997569
0.993956
0.998164
1.00058
0.992831
0.99879
0.998236
0.997847
0.997835
0.998211
0.998818
0.99288
1.00041
1.00126
0.992704
0.999842
0.997964
0.997795
0.997792
0.99794
0.999865
0.992719
1.00109
1.00093
0.992491
0.999946
0.997422
0.997786
0.997792
0.997396
0.99996
0.99251
1.00072
1.00047
0.992435
0.999585
0.996721
0.997589
0.997602
0.996691
0.99958
0.992455
1.00023
1.0001
0.992728
0.999262
0.996193
0.997393
0.997415
0.996157
0.999234
0.992718
0.999864
0.99978
0.993226
0.999074
0.995934
0.997323
0.997358
0.995888
0.999031
0.993192
0.999526
0.999513
0.993763
0.998947
0.995863
0.997339
0.997392
0.995799
0.998886
0.99372
0.999197
0.999327
0.994277
0.998843
0.995901
0.997388
0.997459
0.995812
0.998765
0.994232
0.998924
0.999234
0.994774
0.998772
0.996022
0.997458
0.997547
0.995907
0.998683
0.994722
0.998718
0.999235
0.99525
0.998742
0.99621
0.997553
0.997663
0.996072
0.998644
0.995179
0.998585
0.999315
0.995702
0.998748
0.996446
0.997673
0.997804
0.996284
0.99864
0.99559
0.998522
0.999463
0.996128
0.998774
0.996711
0.997808
0.99796
0.996523
0.998656
0.99595
0.998506
0.999666
0.99653
0.998818
0.996989
0.99795
0.99812
0.996773
0.998691
0.996271
0.998502
0.999914
0.996917
0.998872
0.997268
0.998095
0.998283
0.997025
0.998744
0.996554
0.998494
1.0002
0.997292
0.998923
0.997537
0.99824
0.998445
0.99727
0.998804
0.996791
0.998471
1.0005
0.997661
0.998955
0.997784
0.998377
0.998598
0.9975
0.998864
0.996972
0.998419
1.00077
0.998031
0.99895
0.99799
0.998499
0.99874
0.99771
0.998917
0.997084
0.998316
1.00095
0.998397
0.998877
0.998129
0.998592
0.998863
0.997892
0.99895
0.997106
0.998129
1.00088
0.99872
0.998701
0.998163
0.998636
0.998953
0.998036
0.998947
0.997005
0.997802
1.00032
0.998884
0.998346
0.998023
0.998583
0.998988
0.998132
0.998888
0.996734
0.997236
0.998824
0.9986
0.997667
0.997573
0.998335
0.998911
0.998159
0.998758
0.996221
0.996265
0.995658
0.997257
0.99632
0.996557
0.997698
0.99861
0.998091
0.998582
0.995393
0.994526
0.989605
0.993728
0.993599
0.994476
0.996275
0.997819
0.997803
0.998404
0.994283
0.991554
0.978842
0.986269
0.988268
0.990475
0.993424
0.9961
0.99713
0.998486
0.99352
0.985879
0.961257
0.972522
0.978286
0.98295
0.987725
0.992125
0.994971
0.99831
0.995461
0.978678
0.93421
0.949375
0.960733
0.969668
0.977373
0.984175
0.990456
0.997035
1.00725
0.969778
0.894175
0.912334
0.930398
0.944727
0.95563
0.96388
0.974104
0.980352
1.03579
1.01196
1.00057
1.00387
0.999579
1.00036
1.00032
1.00032
1.00035
0.999575
1.00393
1.0005
0.997055
0.998238
0.997916
1.00005
1.00006
1.00005
1.00002
0.997895
0.998342
0.996983
0.998222
0.993664
0.997382
0.998663
0.998457
0.998441
0.998629
0.997401
0.993764
0.998076
1.00035
0.992506
0.99847
0.997865
0.997436
0.997422
0.997836
0.998493
0.992547
1.00019
1.00116
0.992564
0.999768
0.997822
0.997618
0.997612
0.997794
0.999784
0.992567
1.001
1.00116
0.992774
1.0004
0.997822
0.998182
0.998182
0.997792
1.0004
0.99277
1.00096
1.00099
0.993158
1.00054
0.997635
0.998539
0.998544
0.997599
1.00051
0.993131
1.00079
1.00084
0.993764
1.00054
0.997455
0.998724
0.998738
0.997409
1.0005
0.993697
1.00065
1.0007
0.99444
1.00054
0.997399
0.998881
0.99891
0.997341
1.00049
0.994359
1.00047
1.00055
0.995066
1.0005
0.997432
0.999018
0.999066
0.997354
1.00044
0.994983
1.00026
1.00043
0.995602
1.00041
0.997495
0.999103
0.999172
0.997394
1.00035
0.995532
1.00004
1.00035
0.996067
1.00029
0.997578
0.999141
0.999233
0.997454
1.00024
0.995996
0.999853
1.00033
0.996478
1.00019
0.997689
0.999161
0.999274
0.997542
1.00013
0.996384
0.999723
1.00035
0.996847
1.0001
0.997828
0.999179
0.999315
0.997657
1.00003
0.996714
0.999623
1.00043
0.997176
1.00002
0.997981
0.999199
0.999359
0.997789
0.999947
0.996996
0.999538
1.00057
0.997473
0.999944
0.99814
0.99922
0.999401
0.997927
0.999874
0.997235
0.999459
1.00074
0.99775
0.999879
0.998299
0.999241
0.999442
0.998065
0.999815
0.997434
0.999375
1.00096
0.998016
0.999813
0.998449
0.999262
0.999482
0.998198
0.999766
0.99759
0.99928
1.00118
0.998282
0.999737
0.998581
0.999278
0.999517
0.998322
0.999725
0.997695
0.999157
1.00139
0.998559
0.999634
0.998683
0.999287
0.999547
0.998432
0.999683
0.997738
0.99899
1.00151
0.998848
0.99948
0.998734
0.999277
0.999567
0.998521
0.999629
0.9977
0.998745
1.00142
0.999123
0.999242
0.9987
0.999233
0.999569
0.998584
0.999549
0.99755
0.998371
1.00091
0.999277
0.998847
0.998517
0.999115
0.999532
0.998615
0.999428
0.99724
0.99777
0.999554
0.999049
0.998162
0.998062
0.998837
0.999413
0.9986
0.999258
0.996705
0.996781
0.99666
0.997875
0.996872
0.997101
0.998231
0.999121
0.998527
0.999071
0.995883
0.995052
0.991076
0.99471
0.994332
0.995175
0.996939
0.99842
0.998294
0.99893
0.994819
0.992124
0.981004
0.987882
0.989385
0.991477
0.994347
0.996892
0.997747
0.999097
0.99414
0.986504
0.964053
0.974881
0.979995
0.984424
0.989035
0.993204
0.995786
0.99904
0.996184
0.979319
0.937303
0.952332
0.963124
0.97169
0.979096
0.985563
0.991496
0.99787
1.00806
0.970163
0.897826
0.915967
0.933737
0.947473
0.957794
0.965544
0.975376
0.981225
1.03675
1.01217
1.00057
1.00387
0.999579
1.00036
1.00032
1.00032
1.00035
0.999576
1.00393
1.0005
0.997054
0.998237
0.997915
1.00005
1.00006
1.00004
1.00002
0.997895
0.998339
0.99698
0.998223
0.993661
0.997379
0.998659
0.998451
0.998437
0.998627
0.9974
0.99376
0.998073
1.00035
0.992499
0.998467
0.997861
0.99743
0.997417
0.997832
0.998491
0.992543
1.00019
1.00117
0.992555
0.999769
0.99782
0.997616
0.997606
0.997791
0.999784
0.992566
1.00099
1.00117
0.992766
1.0004
0.997821
0.99818
0.998176
0.99779
1.0004
0.992768
1.00096
1.00103
0.993138
1.00053
0.997631
0.998535
0.99854
0.997598
1.00051
0.993126
1.00079
1.00089
0.99373
1.00054
0.997446
0.998718
0.998733
0.997405
1.0005
0.993691
1.00066
1.00074
0.994414
1.00054
0.997388
0.998874
0.998905
0.997335
1.00049
0.994359
1.00047
1.00055
0.995055
1.00051
0.997419
0.999012
0.999062
0.997349
1.00044
0.994995
1.00023
1.00041
0.9956
1.00042
0.997482
0.999097
0.999168
0.99739
1.00035
0.995543
1.00002
1.00033
0.996065
1.00031
0.997565
0.999133
0.999228
0.997449
1.00023
0.996003
0.99984
1.0003
0.996477
1.0002
0.997676
0.999151
0.999268
0.997535
1.00012
0.996386
0.999724
1.00032
0.996843
1.0001
0.997812
0.999166
0.999307
0.997646
1.00001
0.99671
0.99964
1.0004
0.997166
1.00001
0.997963
0.999183
0.999346
0.997772
0.999917
0.996987
0.999559
1.00053
0.997458
0.999937
0.998119
0.9992
0.999384
0.997904
0.999843
0.997226
0.999468
1.0007
0.997728
0.999864
0.998273
0.999217
0.999419
0.998038
0.999782
0.997425
0.99937
1.0009
0.997987
0.999789
0.998417
0.999231
0.999452
0.998167
0.999729
0.997578
0.999264
1.00112
0.998245
0.999703
0.998542
0.999239
0.999479
0.998286
0.999681
0.997678
0.999137
1.00132
0.99851
0.999587
0.998634
0.999238
0.9995
0.998389
0.99963
0.997712
0.998966
1.00143
0.998785
0.999417
0.998673
0.999218
0.999509
0.998471
0.999566
0.997661
0.998717
1.00132
0.99904
0.99916
0.998624
0.999158
0.999495
0.998523
0.99947
0.997495
0.998333
1.00078
0.99917
0.998741
0.998418
0.999017
0.999435
0.998533
0.999328
0.997162
0.997718
0.999359
0.998902
0.998025
0.99793
0.998705
0.999281
0.998488
0.999129
0.996594
0.996708
0.996368
0.997659
0.996687
0.996919
0.998048
0.998939
0.998369
0.998901
0.995727
0.994941
0.990654
0.994382
0.994069
0.994921
0.996683
0.998166
0.998065
0.998696
0.994603
0.991959
0.980465
0.987417
0.989009
0.991119
0.993983
0.996528
0.997412
0.998758
0.993832
0.986251
0.963464
0.974283
0.979487
0.983941
0.988543
0.992711
0.995326
0.998586
0.995782
0.979013
0.936816
0.951667
0.962444
0.971012
0.978399
0.984848
0.990806
0.997193
1.00743
0.969664
0.897235
0.915198
0.932925
0.946691
0.957019
0.964772
0.974645
0.980559
1.03618
1.01192
1.00055
1.00391
0.999618
1.00039
1.00036
1.00035
1.00039
0.999613
1.00397
1.00048
0.997022
0.998268
0.997893
1.00001
1.00003
1.00002
0.999978
0.997871
0.998366
0.996939
0.998309
0.993857
0.997541
0.998822
0.998636
0.998623
0.99879
0.997558
0.993946
0.998167
1.0006
0.99282
0.998788
0.998232
0.997838
0.997826
0.998209
0.998818
0.99287
1.00042
1.00133
0.992657
0.999843
0.997963
0.997794
0.997786
0.997944
0.999869
0.992706
1.00111
1.001
0.992435
0.999961
0.997422
0.997792
0.997787
0.997401
0.999959
0.992461
1.00079
1.00049
0.992402
0.999611
0.996719
0.997598
0.9976
0.996692
0.999579
0.992383
1.0003
1.00008
0.992716
0.999295
0.996191
0.997405
0.997418
0.996152
0.999241
0.992658
0.999893
0.999746
0.993228
0.999106
0.995931
0.997336
0.997363
0.995878
0.99904
0.993146
0.999524
0.999471
0.993771
0.998973
0.995856
0.997351
0.997396
0.995784
0.998898
0.993677
0.999188
0.999284
0.99429
0.99886
0.995891
0.997396
0.99746
0.995797
0.998785
0.99419
0.998906
0.999197
0.99479
0.998782
0.996009
0.997462
0.997547
0.99589
0.998706
0.994678
0.998696
0.999198
0.995268
0.998747
0.996197
0.997553
0.997662
0.996051
0.998674
0.995137
0.998555
0.999274
0.995717
0.998746
0.996433
0.997668
0.997799
0.99626
0.998676
0.995554
0.998476
0.999418
0.996137
0.998764
0.996695
0.997798
0.99795
0.996494
0.998692
0.995922
0.998446
0.999614
0.996531
0.998795
0.996965
0.997933
0.998107
0.996738
0.998722
0.996247
0.998436
0.999851
0.996908
0.998835
0.997236
0.998072
0.998266
0.996985
0.998766
0.99653
0.99842
1.00012
0.997268
0.998873
0.997496
0.998208
0.998421
0.997226
0.998815
0.996767
0.998392
1.00039
0.99762
0.998892
0.997731
0.998334
0.998568
0.997453
0.998864
0.996946
0.998343
1.00064
0.997965
0.99887
0.997923
0.998443
0.998701
0.99766
0.998906
0.997055
0.998244
1.00077
0.998296
0.998776
0.998045
0.99852
0.998812
0.997837
0.998928
0.997075
0.998055
1.00063
0.998571
0.998572
0.998058
0.998542
0.998883
0.997971
0.998907
0.996965
0.997724
0.999966
0.998659
0.998172
0.997881
0.998453
0.998884
0.998044
0.998823
0.996675
0.997146
0.99831
0.998248
0.997411
0.997365
0.998142
0.998746
0.998024
0.998651
0.996124
0.996153
0.994876
0.996676
0.995915
0.996231
0.997393
0.998341
0.997864
0.998397
0.995228
0.994359
0.98842
0.992786
0.992937
0.993945
0.995785
0.997376
0.997418
0.998083
0.994011
0.99129
0.977233
0.984859
0.987208
0.989607
0.99263
0.995372
0.996477
0.997914
0.993044
0.985411
0.959339
0.970638
0.976735
0.981631
0.986524
0.991021
0.993976
0.997416
0.994766
0.978085
0.932089
0.946949
0.958441
0.967595
0.975468
0.982399
0.988797
0.995449
1.00593
0.968557
0.89136
0.909252
0.927388
0.942022
0.953247
0.961777
0.97222
0.978632
1.03454
1.01159
0.999819
1.00301
0.998896
0.999618
0.999577
0.999575
0.999611
0.998892
1.00306
0.999752
0.995571
0.996399
0.995985
0.997885
0.997892
0.997885
0.997858
0.995966
0.996493
0.995494
0.997459
0.992984
0.996529
0.99756
0.997384
0.997373
0.997534
0.996551
0.993088
0.997328
1.00092
0.993464
0.999457
0.998806
0.998463
0.998453
0.998784
0.999488
0.993524
1.00077
1.00246
0.994336
1.00167
0.999848
0.999745
0.999735
0.999828
1.00168
0.994349
1.00233
1.00258
0.994638
1.00229
0.99994
1.00036
1.00036
0.999923
1.00231
0.994619
1.00244
1.00239
0.994868
1.00218
0.999569
1.00048
1.00048
0.999543
1.00219
0.99484
1.00221
1.00221
0.995321
1.00199
0.999243
1.00047
1.00049
0.9992
1.00199
0.995266
1.00201
1.00199
0.995857
1.00183
0.999052
1.00047
1.0005
0.998992
1.00181
0.995763
1.00179
1.00174
0.996327
1.00163
0.998928
1.00043
1.00047
0.998846
1.00159
0.996205
1.0015
1.00149
0.996721
1.0014
0.998831
1.00034
1.0004
0.998725
1.00135
0.996573
1.00119
1.00128
0.997053
1.00116
0.998768
1.00023
1.0003
0.998636
1.0011
0.996892
1.0009
1.00117
0.997328
1.00095
0.998747
1.00011
1.00021
0.998589
1.00088
0.997175
1.00066
1.00111
0.997572
1.00077
0.998756
1
1.00012
0.998578
1.00067
0.997416
1.00045
1.00112
0.997784
1.00059
0.998782
0.999904
1.00003
0.99859
1.00049
0.997614
1.00027
1.00118
0.997983
1.00044
0.998819
0.999818
0.999966
0.998617
1.00033
0.997772
1.00012
1.00128
0.998176
1.0003
0.998867
0.999746
0.99991
0.998656
1.0002
0.9979
0.999965
1.00144
0.99836
1.00017
0.998915
0.999683
0.999867
0.998703
1.00009
0.997995
0.999809
1.00159
0.998549
1.00003
0.998953
0.999626
0.999832
0.998752
0.999999
0.998052
0.999636
1.00171
0.998742
0.999863
0.998965
0.999566
0.999802
0.998795
0.999917
0.998055
0.999424
1.00168
0.998932
0.999628
0.998922
0.999486
0.999764
0.998823
0.999828
0.997982
0.999136
1.00135
0.999069
0.999268
0.998771
0.999349
0.999693
0.998815
0.999705
0.997791
0.998712
1.00041
0.998983
0.998685
0.998413
0.999085
0.999538
0.998741
0.99951
0.997419
0.998038
0.998307
0.998294
0.997662
0.99765
0.998535
0.999193
0.998538
0.999194
0.996761
0.996921
0.994138
0.996216
0.995722
0.996098
0.997382
0.998442
0.99809
0.998702
0.995685
0.994929
0.986339
0.991299
0.991918
0.993031
0.995028
0.996843
0.997125
0.997955
0.99412
0.991522
0.972817
0.98143
0.984647
0.987236
0.99051
0.993681
0.995242
0.996979
0.992481
0.984962
0.951963
0.964481
0.971806
0.976938
0.982212
0.987432
0.99118
0.995128
0.993029
0.976653
0.920536
0.936767
0.949754
0.959542
0.968203
0.976292
0.983882
0.991239
1.00231
0.965057
0.875185
0.893771
0.91315
0.929454
0.942855
0.953665
0.965926
0.973388
1.02936
1.00783
1.0036
1.00678
1.00306
1.00396
1.00392
1.00392
1.00396
1.00306
1.00684
1.00355
0.996318
0.996946
0.996476
0.99835
0.99831
0.998303
0.998332
0.996472
0.99707
0.996278
0.994239
0.989818
0.993041
0.993916
0.993711
0.993703
0.9939
0.993062
0.989941
0.994165
0.99561
0.987859
0.99348
0.992835
0.992484
0.992477
0.992815
0.993496
0.987912
0.995507
0.996332
0.987419
0.994325
0.992664
0.992495
0.992484
0.99264
0.99433
0.987416
0.996197
0.996276
0.987475
0.994607
0.992421
0.992675
0.992664
0.99241
0.994608
0.987419
0.996113
0.996341
0.988129
0.994827
0.992359
0.99303
0.993033
0.992356
0.994822
0.988039
0.996147
0.996656
0.989271
0.99528
0.992657
0.99362
0.993635
0.992635
0.995263
0.989154
0.996425
0.997018
0.990527
0.995823
0.993166
0.994307
0.994333
0.993122
0.995793
0.990388
0.996743
0.997323
0.991671
0.996312
0.993723
0.994954
0.994988
0.993656
0.99626
0.991501
0.996995
0.997584
0.992681
0.996718
0.994265
0.995518
0.995564
0.994178
0.996645
0.992464
0.997188
0.997865
0.993556
0.997057
0.994783
0.996002
0.996066
0.994671
0.996975
0.993303
0.99735
0.998182
0.994296
0.997356
0.995277
0.996421
0.996505
0.995138
0.997275
0.994036
0.997485
0.998493
0.99494
0.997632
0.995745
0.996786
0.996892
0.995578
0.997532
0.994669
0.997598
0.998814
0.995509
0.997874
0.996176
0.997106
0.997231
0.995982
0.997747
0.995189
0.997722
0.999146
0.99602
0.998088
0.99657
0.997387
0.997532
0.996355
0.997943
0.995603
0.997856
0.999475
0.996493
0.998275
0.996929
0.997634
0.997798
0.996695
0.998118
0.995943
0.997952
0.999811
0.99693
0.998426
0.997244
0.997847
0.99803
0.996999
0.998269
0.996217
0.997993
1.00013
0.997338
0.998518
0.997508
0.998025
0.99823
0.997266
0.998392
0.996419
0.997976
1.0004
0.997713
0.998532
0.997706
0.998162
0.998394
0.997491
0.99848
0.996537
0.997882
1.0005
0.998063
0.998439
0.997818
0.998246
0.998514
0.997667
0.998521
0.996548
0.997676
1.00024
0.998354
0.998205
0.997791
0.998239
0.998563
0.997777
0.998492
0.996413
0.997301
0.999353
0.99843
0.997736
0.997526
0.99807
0.998491
0.997786
0.998357
0.996069
0.996642
0.997319
0.997903
0.996824
0.996814
0.997561
0.998175
0.997618
0.998059
0.995411
0.99551
0.992998
0.995833
0.994931
0.995192
0.996324
0.997359
0.997137
0.997535
0.994307
0.993475
0.983975
0.990136
0.990859
0.991768
0.993609
0.995481
0.995988
0.996653
0.99267
0.989989
0.967226
0.97763
0.982239
0.984845
0.988092
0.991548
0.993575
0.995304
0.990874
0.983284
0.942301
0.957591
0.9671
0.972331
0.977658
0.983396
0.988006
0.992281
0.990835
0.974762
0.902543
0.923201
0.939268
0.949685
0.958993
0.968092
0.977179
0.985549
0.998501
0.9625
0.847994
0.868263
0.889171
0.907318
0.923168
0.936455
0.951481
0.96119
1.02028
1.00483
0.999563
1.00354
0.999752
1.00048
1.00049
1.00049
1.00047
0.999751
1.00356
0.999502
0.994941
0.996229
0.995482
0.996924
0.996953
0.996949
0.996911
0.995479
0.996282
0.994863
0.999324
0.994121
0.997298
0.99815
0.998051
0.998044
0.998137
0.99732
0.994179
0.999164
1.0038
0.995502
1.00075
1.00041
1.00017
1.00017
1.00041
1.00078
0.99554
1.00362
1.00493
0.996245
1.00232
1.00113
1.00101
1.00102
1.00113
1.00236
0.996251
1.00477
1.00438
0.99621
1.00248
1.00084
1.00105
1.00106
1.00081
1.00249
0.996185
1.00424
1.00369
0.996285
1.00233
1.0004
1.00092
1.00092
1.00034
1.00231
0.996246
1.00355
1.00313
0.996594
1.00217
1.00003
1.00079
1.00079
0.999976
1.00211
0.996553
1.00296
1.00259
0.996935
1.00196
0.999713
1.00062
1.00063
0.999662
1.00187
0.996901
1.00238
1.00208
0.997196
1.00168
0.99942
1.00042
1.00045
0.999369
1.00157
0.997187
1.00181
1.00165
0.997393
1.0014
0.999184
1.00022
1.00027
0.999124
1.00127
0.997414
1.00132
1.00134
0.997592
1.00115
0.999036
1.00007
1.00012
0.998962
1.00101
0.997598
1.00095
1.00116
0.997805
1.00095
0.99896
0.999954
1.00002
0.99887
1.00079
0.997746
1.00067
1.00107
0.99799
1.0008
0.998939
0.999881
0.99995
0.998832
1.00063
0.997881
1.00045
1.00106
0.998167
1.00068
0.99896
0.999836
0.999914
0.998833
1.00052
0.998014
1.00027
1.00114
0.998341
1.0006
0.999011
0.999811
0.9999
0.998861
1.00042
0.998133
1.00012
1.0013
0.998518
1.00053
0.999082
0.999804
0.999909
0.998912
1.00035
0.998233
1.00001
1.00153
0.998727
1.00047
0.999167
0.999818
0.999942
0.998987
1.00032
0.998316
0.999907
1.0018
0.998996
1.0004
0.999261
0.999851
1
0.999087
1.00032
0.998386
0.999817
1.00207
0.999352
1.00029
0.999354
0.999901
1.00009
0.999209
1.00034
0.998436
0.99972
1.00221
0.999779
1.0001
0.999408
0.999957
1.00019
0.999353
1.00038
0.998456
0.999591
1.00197
1.00018
0.9998
0.999367
0.999986
1.00031
0.999511
1.00043
0.998422
0.999381
1.00091
1.00033
0.999244
0.999099
0.99988
1.00037
0.999663
1.00046
0.998294
0.998997
0.998242
0.999579
0.998169
0.998335
0.99941
1.00023
0.999729
1.00045
0.997998
0.998269
0.992631
0.99655
0.995841
0.996467
0.99806
0.999522
0.999532
1.00032
0.997442
0.9968
0.980683
0.988338
0.990637
0.992343
0.994863
0.997509
0.998598
0.999899
0.996558
0.994041
0.959253
0.972031
0.97989
0.983812
0.988069
0.992837
0.996103
0.998997
0.995901
0.988394
0.934954
0.953483
0.963596
0.969078
0.975493
0.983019
0.989647
0.995839
0.997226
0.981282
0.897207
0.918413
0.933637
0.942578
0.953017
0.964785
0.977292
0.988813
1.00814
0.973276
0.837647
0.851852
0.873382
0.892981
0.910722
0.92643
0.944999
0.957628
1.0293
1.02751
0.804238
0.81548
0.835189
0.857184
0.877736
0.894805
0.916716
0.925223
1.00289
1.02729
0.780577
0.789611
0.808554
0.830821
0.852096
0.870031
0.893398
0.90333
0.976224
1.04445
0.755401
0.763038
0.78135
0.802745
0.823311
0.84073
0.863932
0.877669
0.94098
1.04619
0.729211
0.735612
0.753537
0.773355
0.792106
0.80801
0.829295
0.846165
0.898794
1.01756
0.702348
0.707465
0.725037
0.742914
0.759399
0.773115
0.791157
0.808687
0.850183
0.966872
0.675071
0.678728
0.695749
0.711217
0.724876
0.73587
0.750224
0.76696
0.797615
0.903616
0.647559
0.649556
0.665545
0.678207
0.688697
0.696496
0.706708
0.721493
0.743424
0.833736
0.619901
0.62008
0.634429
0.643995
0.651146
0.655544
0.661548
0.673134
0.688273
0.760914
0.592146
0.590508
0.602631
0.608913
0.612434
0.613101
0.614591
0.622184
0.631571
0.687809
0.564433
0.56109
0.570455
0.573075
0.572123
0.568341
0.565072
0.568384
0.572738
0.614516
0.536865
0.531846
0.537817
0.535989
0.529882
0.521412
0.513821
0.512854
0.512935
0.542248
0.509325
0.502541
0.504283
0.497361
0.486242
0.473531
0.462257
0.457328
0.453843
0.47296
0.481555
0.472879
0.469833
0.457851
0.442291
0.42598
0.411669
0.403385
0.397037
0.408222
0.453322
0.442758
0.434939
0.418396
0.39903
0.379792
0.36316
0.35229
0.343788
0.349141
0.424562
0.41235
0.400131
0.379638
0.357135
0.3357
0.317461
0.304771
0.294724
0.295951
0.395509
0.381884
0.365741
0.341973
0.317047
0.29413
0.274919
0.261046
0.249894
0.248181
0.366354
0.3515
0.331994
0.305663
0.279034
0.255278
0.235602
0.220986
0.208987
0.205026
0.337142
0.321334
0.299079
0.270899
0.243263
0.219216
0.199437
0.184364
0.171727
0.166038
0.307968
0.291541
0.267181
0.237848
0.209876
0.185985
0.166419
0.151136
0.138091
0.130815
0.279026
0.262315
0.236504
0.206701
0.178995
0.155688
0.136533
0.121074
0.107849
0.0992476
0.250588
0.233883
0.207275
0.177648
0.150749
0.128267
0.109617
0.09427
0.0813232
0.0719378
0.22297
0.206497
0.179729
0.15085
0.125185
0.103686
0.0858804
0.0711669
0.0590534
0.0495259
0.196504
0.180426
0.154078
0.126454
0.102284
0.0821017
0.0655793
0.0520457
0.0412386
0.0323896
0.171495
0.155928
0.130499
0.104578
0.0821313
0.0636244
0.0487941
0.0369015
0.0277259
0.0202005
0.148197
0.133236
0.109144
0.0852018
0.0647492
0.0482352
0.0354155
0.0254213
0.0179931
0.0120721
0.126802
0.11253
0.0901179
0.0683155
0.0500869
0.0357997
0.0251327
0.0170612
0.0113099
0.00696251
0.107434
0.0939151
0.0734462
0.0538925
0.0380341
0.0260626
0.0174856
0.0111883
0.00691836
0.00391131
0.0901413
0.0774436
0.0590333
0.041828
0.0283909
0.0186568
0.0119594
0.0071953
0.00414234
0.00215472
0.0748976
0.0631479
0.046782
0.0319565
0.0208601
0.0131591
0.00806114
0.00456076
0.00244347
0.00116645
0.0616284
0.0510001
0.0365715
0.0240598
0.0151239
0.00918302
0.0053866
0.00288157
0.00144052
0.000628486
0.81741
0.833865
0.855348
0.876252
0.895382
0.910912
0.929739
0.935894
1.00425
1.00404
0.795546
0.809959
0.832168
0.854133
0.874235
0.890611
0.911333
0.918224
0.984333
1.01596
0.771233
0.784026
0.807184
0.829961
0.850407
0.866714
0.887889
0.897891
0.957461
1.0222
0.745206
0.756032
0.779954
0.803213
0.823772
0.839718
0.859818
0.872791
0.923962
1.00816