/*--------------------------------*- C++ -*----------------------------------*\
| =========                 |                                                 |
| \\      /  F ield         | OpenFOAM: The Open Source CFD Toolbox           |
|  \\    /   O peration     | Version:  4.1                                   |
|   \\  /    A nd           | Web:      www.OpenFOAM.org                      |
|    \\/     M anipulation  |                                                 |
\*---------------------------------------------------------------------------*/
FoamFile
{
    version     2.0;
    format      ascii;
    class       volScalarField;
    location    "20";
    object      T;
}
// * * * * * * * * * * * * * * * * * * * * * * * * * * * * * * * * * * * * * //

dimensions      [0 0 0 1 0 0 0];

internalField   nonuniform List<scalar> 
12000
(
0.999526
1.00352
0.999756
1.00049
1.0005
1.0005
1.00048
0.999756
1.00354
0.999501
0.994675
0.995993
0.995271
0.996728
0.996762
0.996754
0.996717
0.995271
0.996028
0.994631
0.998567
0.993458
0.996684
0.997563
0.997473
0.997472
0.997558
0.996706
0.993494
0.998504
1.00212
0.993971
0.9993
0.999
0.998817
0.998798
0.999007
0.999327
0.993972
1.00203
1.00165
0.993206
0.99942
0.998314
0.998347
0.998253
0.998328
0.999457
0.993177
1.00154
0.998529
0.990722
0.997227
0.995742
0.996137
0.996042
0.995764
0.997265
0.990733
0.998416
0.993826
0.986989
0.99342
0.991749
0.992453
0.992449
0.991781
0.993464
0.987088
0.993745
0.987261
0.981596
0.987784
0.986089
0.987037
0.987113
0.986142
0.987883
0.981819
0.987271
0.978058
0.973691
0.979657
0.978095
0.979274
0.979404
0.978204
0.979845
0.974087
0.978244
0.96547
0.962446
0.968287
0.967043
0.968459
0.968637
0.967265
0.968658
0.9631
0.965952
0.948735
0.94704
0.952957
0.952217
0.953862
0.954108
0.952596
0.953628
0.94811
0.949699
0.927049
0.926706
0.932935
0.932842
0.934743
0.935089
0.933465
0.934062
0.928406
0.928786
0.899671
0.900755
0.907469
0.908174
0.91039
0.91088
0.909196
0.909286
0.903361
0.902566
0.865976
0.868555
0.875964
0.877604
0.880216
0.880908
0.879214
0.878769
0.872484
0.870535
0.825584
0.829734
0.838044
0.840738
0.843843
0.844815
0.843177
0.842221
0.83553
0.832474
0.778435
0.784225
0.793591
0.797467
0.801173
0.802524
0.801034
0.799636
0.792564
0.788493
0.724811
0.732298
0.742842
0.748018
0.752444
0.754295
0.75307
0.751356
0.743994
0.739055
0.665369
0.674598
0.686398
0.69298
0.698249
0.700739
0.699933
0.698079
0.690585
0.684978
0.601119
0.612126
0.625209
0.633286
0.639525
0.642807
0.642601
0.640833
0.633427
0.627394
0.533393
0.54619
0.560536
0.570175
0.5775
0.581734
0.582326
0.58091
0.573863
0.567679
0.463761
0.478297
0.493861
0.505092
0.513604
0.518944
0.520541
0.519767
0.513382
0.507339
0.393964
0.410082
0.426797
0.439593
0.449363
0.455938
0.458747
0.458903
0.453507
0.447895
0.325872
0.343236
0.360975
0.375227
0.386276
0.394173
0.398383
0.399751
0.395666
0.390763
0.261427
0.279427
0.297962
0.313438
0.325696
0.334941
0.340709
0.343556
0.341091
0.337151
0.202568
0.220255
0.23915
0.255459
0.268743
0.279284
0.286709
0.291289
0.290733
0.287954
0.151004
0.16721
0.185728
0.202281
0.216245
0.227914
0.237006
0.243544
0.245214
0.243768
0.107719
0.121446
0.138599
0.154616
0.168755
0.181239
0.191883
0.200557
0.204856
0.204678
0.0739897
0.0845065
0.0987893
0.113137
0.126653
0.139349
0.151143
0.16194
0.169656
0.171027
0.0488677
0.0560143
0.0667146
0.0784446
0.0904179
0.102473
0.114733
0.127197
0.139555
0.142297
0.030437
0.0346941
0.0420622
0.0508639
0.0603602
0.0704323
0.0816707
0.0940216
0.112931
0.124229
1.00354
1.0067
1.00296
1.00387
1.00383
1.00382
1.00386
1.00296
1.00674
1.00348
0.996016
0.996606
0.996147
0.998025
0.997984
0.997982
0.998011
0.996143
0.996703
0.995961
0.993491
0.989063
0.992309
0.993212
0.993017
0.993008
0.993196
0.992327
0.989153
0.993394
0.994015
0.986366
0.992052
0.99146
0.991112
0.991114
0.991444
0.992086
0.98646
0.993881
0.993258
0.984612
0.991641
0.990059
0.989862
0.989925
0.990051
0.991684
0.984739
0.993102
0.990786
0.982457
0.989815
0.987773
0.988008
0.988097
0.987768
0.989865
0.982583
0.990665
0.987069
0.979601
0.986683
0.984483
0.985206
0.985266
0.984489
0.986753
0.979724
0.987028
0.981695
0.975419
0.982048
0.979865
0.980984
0.981028
0.979897
0.982151
0.975569
0.981763
0.973808
0.968913
0.975164
0.973198
0.97461
0.974668
0.973274
0.975354
0.969166
0.974036
0.962579
0.959117
0.965189
0.963627
0.965274
0.965376
0.963785
0.96553
0.959594
0.963051
0.947177
0.94525
0.951341
0.950329
0.9522
0.952371
0.950643
0.951932
0.946095
0.948072
0.926823
0.926537
0.932846
0.932536
0.934642
0.934912
0.933102
0.933841
0.92795
0.928411
0.90082
0.902186
0.908981
0.909519
0.911893
0.912305
0.910454
0.910594
0.904475
0.903445
0.868512
0.871607
0.879134
0.880655
0.883359
0.88397
0.882123
0.881652
0.875169
0.872682
0.829499
0.834413
0.842868
0.845509
0.848633
0.849516
0.847738
0.846673
0.839749
0.835901
0.783682
0.790484
0.800046
0.803925
0.807575
0.808822
0.807198
0.805611
0.798227
0.793169
0.731296
0.74005
0.750853
0.756068
0.760367
0.762088
0.760732
0.758752
0.750978
0.744869
0.672952
0.683695
0.69583
0.702465
0.70754
0.709865
0.708916
0.706727
0.698712
0.691759
0.609637
0.622355
0.635869
0.64399
0.649972
0.65304
0.652665
0.650498
0.642463
0.634933
0.542672
0.557279
0.572173
0.581828
0.58884
0.592798
0.593182
0.591299
0.583529
0.575737
0.47362
0.489981
0.506204
0.517401
0.525547
0.530535
0.531876
0.53056
0.523376
0.515668
0.404238
0.422129
0.439576
0.452269
0.461618
0.467757
0.470245
0.469792
0.463529
0.456255
0.336422
0.355446
0.373939
0.388016
0.398582
0.405957
0.409764
0.41046
0.405449
0.398937
0.272088
0.291641
0.31089
0.326132
0.33785
0.346493
0.351758
0.353871
0.350424
0.344965
0.213047
0.232316
0.251862
0.267918
0.280622
0.29049
0.297303
0.301075
0.299477
0.295288
0.160858
0.178864
0.198057
0.214417
0.227808
0.238757
0.247131
0.252777
0.25332
0.250568
0.116616
0.132361
0.15037
0.16639
0.180038
0.191792
0.201626
0.209317
0.212356
0.210938
0.0811082
0.0938002
0.109564
0.124401
0.137675
0.149736
0.160706
0.170469
0.176741
0.176816
0.0539891
0.0633603
0.0760682
0.0889056
0.101059
0.112714
0.124243
0.135698
0.146421
0.147623
0.0342553
0.0404367
0.0497378
0.0599821
0.0702335
0.0804807
0.0914368
0.103136
0.120454
0.128953
0.999768
1.00296
0.998852
0.999575
0.999535
0.999533
0.999571
0.998853
1.00301
0.999703
0.995301
0.996156
0.995767
0.997673
0.997681
0.997674
0.997651
0.995751
0.996251
0.995232
0.99673
0.992323
0.995892
0.996939
0.996771
0.996758
0.996915
0.995914
0.992424
0.996601
0.999357
0.992067
0.998098
0.997488
0.99716
0.997154
0.997467
0.998134
0.992138
0.999219
0.999479
0.991654
0.999066
0.997332
0.997257
0.997268
0.997315
0.999102
0.991703
0.99936
0.997288
0.989825
0.997655
0.995459
0.995948
0.995952
0.99545
0.997704
0.989862
0.997197
0.993478
0.986685
0.994331
0.991985
0.993026
0.993015
0.991995
0.9944
0.986739
0.993432
0.98784
0.982028
0.98927
0.98694
0.988386
0.988383
0.986987
0.989386
0.982137
0.987882
0.979686
0.975117
0.981991
0.979858
0.981587
0.981615
0.979958
0.982192
0.975331
0.979903
0.968269
0.965101
0.971754
0.969998
0.971945
0.972024
0.970181
0.972103
0.965528
0.968758
0.952869
0.951186
0.9578
0.956582
0.958722
0.958872
0.956909
0.958396
0.951976
0.953778
0.932717
0.932595
0.939383
0.938856
0.941189
0.941439
0.939411
0.940366
0.933953
0.934296
0.907063
0.908577
0.91579
0.916092
0.918652
0.919043
0.916994
0.91736
0.910799
0.909662
0.875253
0.878518
0.886385
0.887655
0.890502
0.891088
0.889066
0.888814
0.881977
0.879368
0.836861
0.841975
0.850708
0.853081
0.856302
0.85715
0.855215
0.854362
0.847163
0.843126
0.79175
0.798781
0.808571
0.812167
0.815869
0.817064
0.815296
0.813909
0.806323
0.800952
0.740104
0.749112
0.760111
0.765031
0.769332
0.770979
0.769481
0.767682
0.759758
0.753206
0.682483
0.693501
0.705811
0.712139
0.717165
0.719386
0.718286
0.716249
0.708115
0.700595
0.61982
0.632837
0.646512
0.654309
0.660187
0.663115
0.66257
0.660511
0.652369
0.644163
0.553383
0.568331
0.583375
0.592678
0.599525
0.603301
0.603486
0.601659
0.593765
0.585217
0.48473
0.501464
0.517819
0.528632
0.536548
0.541306
0.542406
0.541088
0.533742
0.525225
0.415605
0.433887
0.451435
0.46371
0.472761
0.478617
0.480815
0.480295
0.473818
0.465706
0.347878
0.367318
0.385875
0.399497
0.409697
0.416735
0.420195
0.420751
0.415467
0.408112
0.283419
0.303454
0.322743
0.337503
0.348792
0.357042
0.3619
0.363792
0.360007
0.353721
0.224013
0.243881
0.263487
0.279067
0.291289
0.30071
0.307054
0.310518
0.308511
0.303524
0.17119
0.189982
0.209322
0.225277
0.238161
0.248609
0.256453
0.261702
0.261754
0.258234
0.126054
0.142863
0.161196
0.176952
0.190101
0.201308
0.210555
0.217763
0.220221
0.218038
0.089236
0.103306
0.119783
0.134643
0.147508
0.159011
0.169354
0.178568
0.184166
0.183403
0.060619
0.071561
0.0854514
0.0987238
0.110672
0.121831
0.132755
0.143648
0.153706
0.15385
0.0393211
0.0471807
0.0580509
0.0691019
0.0794178
0.089319
0.099786
0.110961
0.127953
0.13513
1.0005
1.00387
0.999576
1.00035
1.00032
1.00031
1.00035
0.999574
1.00392
1.00043
0.996759
0.998038
0.997677
0.999799
0.999823
0.999813
0.999772
0.997658
0.998136
0.996689
0.997618
0.993229
0.996944
0.998242
0.99807
0.998056
0.998215
0.996968
0.993329
0.997474
0.999084
0.991472
0.997489
0.996972
0.9966
0.996589
0.996951
0.997525
0.991531
0.99893
0.998386
0.990082
0.997333
0.99553
0.995396
0.995395
0.995517
0.997373
0.99012
0.998244
0.995805
0.987792
0.99545
0.993068
0.993491
0.993504
0.993062
0.995498
0.987857
0.995654
0.991814
0.984466
0.991962
0.989344
0.990311
0.990337
0.989353
0.992023
0.984577
0.991699
0.986121
0.979809
0.986905
0.984237
0.985598
0.985644
0.984275
0.986998
0.979968
0.986119
0.978077
0.97308
0.9798
0.977283
0.978922
0.979001
0.977369
0.979973
0.97335
0.978236
0.966952
0.96342
0.969902
0.967747
0.969601
0.969727
0.96791
0.970217
0.963904
0.967355
0.951988
0.95
0.956432
0.95482
0.956861
0.957054
0.955111
0.956982
0.95084
0.952793
0.932386
0.932033
0.938623
0.937715
0.939941
0.940229
0.938217
0.939553
0.93342
0.933834
0.907379
0.908755
0.915736
0.915678
0.918123
0.918544
0.916511
0.917243
0.910954
0.909824
0.876302
0.87951
0.887117
0.888049
0.890774
0.891381
0.889371
0.889465
0.882878
0.88024
0.838697
0.843835
0.852286
0.854339
0.857429
0.858287
0.856359
0.85582
0.848846
0.844765
0.794383
0.801533
0.811023
0.814312
0.817869
0.819063
0.817292
0.816182
0.808798
0.803364
0.743519
0.752735
0.763424
0.768049
0.772189
0.773819
0.772305
0.770742
0.762996
0.756354
0.686637
0.69793
0.709933
0.715978
0.720824
0.723009
0.721879
0.720029
0.712041
0.704413
0.624644
0.637976
0.651357
0.658881
0.664559
0.667429
0.666836
0.664911
0.656875
0.64855
0.558789
0.574065
0.588832
0.597867
0.604493
0.608184
0.608299
0.606555
0.598722
0.59004
0.490608
0.507662
0.523762
0.534304
0.541977
0.546621
0.547625
0.546339
0.539006
0.530337
0.42184
0.440413
0.457735
0.469728
0.478511
0.48422
0.486293
0.485752
0.479239
0.470962
0.354352
0.374045
0.392402
0.405728
0.415635
0.422488
0.425792
0.426275
0.420907
0.413376
0.290005
0.310261
0.32938
0.343832
0.354805
0.36283
0.367497
0.369267
0.365351
0.35888
0.230556
0.250642
0.270124
0.285402
0.297293
0.306447
0.312563
0.315861
0.313676
0.308499
0.177497
0.196562
0.21586
0.231555
0.244104
0.254246
0.261822
0.266863
0.266696
0.262975
0.131909
0.149108
0.167535
0.183123
0.195954
0.206821
0.215759
0.222731
0.22494
0.222541
0.0943604
0.108995
0.125781
0.140624
0.153219
0.164362
0.174364
0.183326
0.188682
0.187661
0.0647809
0.0764552
0.0909076
0.104344
0.116099
0.126904
0.13748
0.148136
0.158054
0.157932
0.042464
0.0511277
0.0627326
0.0740631
0.0842289
0.0937827
0.103921
0.114869
0.132005
0.139002
1.00052
1.00383
0.999536
1.00032
1.00028
1.00028
1.00031
0.999533
1.00388
1.00045
0.996794
0.998
0.997689
0.999828
0.999838
0.999828
0.999797
0.997669
0.998105
0.996724
0.997534
0.99304
0.996785
0.99808
0.997881
0.997867
0.998048
0.996807
0.993144
0.997394
0.998869
0.991164
0.997185
0.996616
0.996204
0.996192
0.996591
0.997216
0.991215
0.998724
0.998324
0.989974
0.997291
0.995418
0.995248
0.995245
0.995401
0.997323
0.99
0.99819
0.996097
0.988132
0.995959
0.993519
0.993938
0.993945
0.99351
0.995994
0.988174
0.995958
0.992439
0.985284
0.993005
0.990343
0.991344
0.991362
0.990346
0.993043
0.985347
0.99236
0.987027
0.980995
0.988326
0.985633
0.987059
0.987097
0.98566
0.988404
0.981096
0.987065
0.979241
0.974522
0.981477
0.978953
0.980678
0.98075
0.979024
0.981642
0.974742
0.979423
0.968345
0.965054
0.971765
0.969613
0.971568
0.971689
0.969759
0.972078
0.965496
0.968767
0.95359
0.951791
0.958433
0.956833
0.958981
0.959171
0.957107
0.958996
0.952599
0.954397
0.934184
0.933961
0.940741
0.939843
0.942178
0.942465
0.940329
0.941693
0.935318
0.93563
0.909361
0.91082
0.91797
0.917915
0.920462
0.920883
0.918727
0.919499
0.912979
0.911821
0.878473
0.881726
0.889478
0.890402
0.893218
0.893824
0.891699
0.891839
0.885046
0.882426
0.84107
0.846212
0.854786
0.856819
0.859988
0.860845
0.858809
0.858323
0.851176
0.847128
0.796967
0.804078
0.813669
0.816928
0.820551
0.821742
0.819872
0.818819
0.811296
0.805901
0.746313
0.755448
0.766216
0.770802
0.774993
0.776617
0.775014
0.773507
0.765654
0.759058
0.689626
0.700802
0.712864
0.71886
0.723742
0.725916
0.724705
0.722909
0.714842
0.707264
0.6278
0.640991
0.654411
0.661876
0.667571
0.670424
0.669757
0.667884
0.65979
0.651511
0.562077
0.577198
0.591984
0.600949
0.607573
0.611238
0.611284
0.609585
0.60171
0.593069
0.493989
0.510882
0.52698
0.537442
0.54509
0.549697
0.550633
0.549381
0.54202
0.533383
0.425274
0.443685
0.460981
0.472885
0.48162
0.48728
0.489281
0.488762
0.482227
0.473972
0.357794
0.377332
0.395639
0.408867
0.418704
0.425494
0.42872
0.429209
0.42382
0.416301
0.293398
0.31352
0.332567
0.346919
0.357803
0.365749
0.370328
0.372088
0.368147
0.36168
0.233826
0.253822
0.273225
0.288407
0.300196
0.309255
0.315272
0.31854
0.316325
0.311142
0.180551
0.199597
0.218833
0.234448
0.246891
0.256924
0.264387
0.269382
0.269178
0.265442
0.13464
0.151914
0.17033
0.185868
0.198601
0.209347
0.218161
0.225071
0.22724
0.22481
0.0966524
0.111463
0.128328
0.143169
0.155681
0.166701
0.176574
0.185464
0.190786
0.189714
0.0665555
0.0784845
0.0931162
0.106605
0.118301
0.12899
0.139445
0.150027
0.159945
0.159718
0.0437643
0.0526963
0.064543
0.0759572
0.0860748
0.0955205
0.105555
0.116425
0.133655
0.140604
1.00052
1.00383
0.999536
1.00032
1.00028
1.00028
1.00031
0.999533
1.00388
1.00045
0.996793
0.997999
0.997688
0.999826
0.999836
0.999826
0.999796
0.99767
0.998103
0.996722
0.997535
0.993036
0.996782
0.998076
0.997876
0.997862
0.998046
0.996806
0.99314
0.997391
0.998872
0.991156
0.997183
0.996612
0.996198
0.996186
0.996588
0.997214
0.991211
0.998723
0.998332
0.989965
0.997291
0.995417
0.995246
0.995239
0.995398
0.997323
0.989999
0.998186
0.996105
0.988124
0.995962
0.993518
0.993936
0.993938
0.993508
0.995996
0.988172
0.995953
0.99247
0.985264
0.992999
0.990339
0.99134
0.991357
0.990345
0.993045
0.985341
0.992361
0.98708
0.980961
0.988318
0.985623
0.987052
0.987091
0.985655
0.988401
0.981089
0.987069
0.979278
0.974495
0.981475
0.97894
0.98067
0.980744
0.979016
0.981638
0.97474
0.979416
0.968347
0.965041
0.97177
0.969598
0.971559
0.971682
0.969752
0.972076
0.965504
0.968739
0.953567
0.951787
0.958442
0.956817
0.958971
0.959163
0.9571
0.958989
0.952605
0.954369
0.934154
0.933954
0.940747
0.939824
0.942164
0.942454
0.940317
0.941678
0.935315
0.935609
0.909321
0.91081
0.917969
0.917892
0.920442
0.920867
0.91871
0.919474
0.912968
0.911808
0.878425
0.881708
0.889466
0.890372
0.893191
0.893801
0.891674
0.891802
0.885023
0.882421
0.841013
0.846181
0.854762
0.856781
0.859951
0.860812
0.858772
0.858274
0.851143
0.847117
0.796894
0.804032
0.81363
0.816878
0.820503
0.821696
0.819822
0.818761
0.811253
0.80587
0.746219
0.755384
0.766158
0.770736
0.774931
0.776557
0.77495
0.773438
0.765599
0.759003
0.689509
0.700717
0.712784
0.718776
0.72366
0.725837
0.724626
0.722824
0.714772
0.707188
0.627658
0.640879
0.654305
0.66177
0.667468
0.670323
0.669658
0.667779
0.659698
0.651417
0.561907
0.577056
0.591848
0.600817
0.607444
0.611113
0.611163
0.609456
0.601593
0.592954
0.49379
0.510705
0.526812
0.53728
0.544934
0.549545
0.550487
0.549228
0.541873
0.533246
0.425046
0.443475
0.460781
0.472693
0.481435
0.487099
0.489108
0.488579
0.48205
0.473808
0.357537
0.377091
0.395408
0.408645
0.418488
0.425281
0.428516
0.428997
0.42361
0.416108
0.293117
0.313253
0.33231
0.346669
0.357557
0.365505
0.370093
0.371845
0.367904
0.361456
0.233533
0.253537
0.272948
0.288134
0.299924
0.308983
0.315007
0.318269
0.316051
0.310887
0.180266
0.199308
0.218548
0.234161
0.246601
0.25663
0.264096
0.269085
0.268878
0.265158
0.13439
0.151643
0.170051
0.18558
0.198303
0.20904
0.217852
0.224752
0.226918
0.224502
0.0964599
0.111233
0.128075
0.142899
0.155394
0.166399
0.176263
0.185139
0.190455
0.1894
0.0664335
0.0783144
0.0929062
0.106367
0.118039
0.128706
0.139142
0.149702
0.1596
0.159391
0.0436857
0.0525818
0.0643894
0.075776
0.0858718
0.095297
0.105311
0.116158
0.133354
0.140325
1.0005
1.00387
0.999574
1.00035
1.00032
1.00031
1.00034
0.99957
1.00392
1.00043
0.996758
0.998028
0.997664
0.999785
0.999806
0.999797
0.999755
0.997643
0.998127
0.996677
0.997613
0.993225
0.996937
0.998232
0.998054
0.998042
0.998202
0.996956
0.993319
0.997477
0.9991
0.991461
0.997487
0.996968
0.99659
0.99658
0.996949
0.997525
0.991521
0.99894
0.998455
0.990034
0.997334
0.99553
0.995394
0.995389
0.995521
0.997376
0.990107
0.998268
0.995867
0.987736
0.995464
0.993066
0.993495
0.993498
0.993066
0.995496
0.987807
0.99572
0.991826
0.984432
0.991987
0.98934
0.990318
0.990333
0.989352
0.99202
0.984504
0.991767
0.986099
0.979794
0.986935
0.984232
0.985606
0.985643
0.984267
0.987003
0.979906
0.986142
0.978037
0.973078
0.979827
0.977276
0.978931
0.979001
0.977354
0.979977
0.9733
0.978226
0.9669
0.96342
0.96992
0.967732
0.969604
0.969723
0.967888
0.97022
0.963855
0.967331
0.95193
0.95
0.956435
0.954798
0.956856
0.957042
0.955084
0.956988
0.950787
0.952753
0.932325
0.932027
0.938611
0.937682
0.939925
0.940209
0.93818
0.939554
0.933359
0.933779
0.907305
0.908737
0.915707
0.915634
0.918091
0.918512
0.91646
0.917239
0.910885
0.909747
0.876207
0.879472
0.887066
0.887989
0.890722
0.89133
0.889303
0.88945
0.882801
0.880131
0.838576
0.843766
0.852204
0.854255
0.857351
0.858212
0.856267
0.855784
0.848756
0.844621
0.794224
0.801423
0.8109
0.814194
0.817759
0.818958
0.81717
0.816114
0.808684
0.803185
0.743311
0.752572
0.76325
0.767887
0.772038
0.773676
0.772146
0.770631
0.762848
0.756135
0.686366
0.697701
0.7097
0.715762
0.720621
0.722818
0.721676
0.719865
0.71185
0.70415
0.624295
0.637668
0.651054
0.658601
0.664294
0.66718
0.66658
0.664688
0.656632
0.64824
0.558349
0.573665
0.588448
0.597513
0.604158
0.607869
0.607983
0.606264
0.598416
0.589678
0.49007
0.50716
0.523289
0.533868
0.541563
0.546229
0.547239
0.545972
0.53863
0.529912
0.421204
0.439806
0.457167
0.469204
0.478013
0.483745
0.485829
0.485303
0.478785
0.470468
0.353623
0.373336
0.39174
0.405114
0.415048
0.421925
0.425244
0.425739
0.42037
0.412807
0.289201
0.309464
0.32863
0.34313
0.354129
0.362176
0.366861
0.368643
0.364725
0.358234
0.229707
0.24978
0.269302
0.284624
0.296536
0.305707
0.311838
0.315147
0.312964
0.307773
0.176647
0.195673
0.214992
0.230718
0.243281
0.253432
0.261015
0.266065
0.265904
0.262175
0.131123
0.148248
0.166662
0.182258
0.19509
0.205953
0.214886
0.221855
0.224072
0.221669
0.0937102
0.108233
0.12496
0.139782
0.152361
0.163487
0.173468
0.182408
0.18777
0.186764
0.0643043
0.0758383
0.0901833
0.103564
0.115286
0.126056
0.136587
0.147186
0.157075
0.156969
0.042123
0.0506669
0.0621561
0.0734234
0.0835575
0.0930809
0.10317
0.114047
0.131108
0.138171
0.999768
1.00297
0.998851
0.999574
0.999534
0.999532
0.999568
0.998848
1.00302
0.999702
0.995302
0.996153
0.995751
0.997656
0.997666
0.997658
0.99763
0.995733
0.996249
0.995227
0.996746
0.992336
0.995909
0.996956
0.996787
0.996777
0.996932
0.995935
0.992445
0.996621
0.999379
0.992066
0.99812
0.997507
0.997181
0.997173
0.99749
0.998159
0.992137
0.999245
0.999501
0.991634
0.999083
0.997342
0.997274
0.997267
0.997332
0.999117
0.991671
0.999398
0.997293
0.989791
0.997659
0.99545
0.995931
0.995934
0.995453
0.997708
0.98982
0.997222
0.993466
0.986644
0.994316
0.991958
0.992968
0.992989
0.991972
0.994391
0.98671
0.993411
0.987804
0.981989
0.989242
0.986905
0.988303
0.988347
0.986938
0.98936
0.982109
0.987841
0.979635
0.975075
0.98195
0.979814
0.981489
0.981567
0.97989
0.982152
0.975297
0.979852
0.968227
0.965051
0.971696
0.969946
0.97184
0.971961
0.9701
0.972048
0.965477
0.968708
0.952817
0.951128
0.957727
0.956526
0.958611
0.958798
0.956815
0.958328
0.951901
0.953731
0.932635
0.932523
0.939302
0.938793
0.941071
0.941354
0.939301
0.940293
0.93386
0.934233
0.906954
0.908482
0.91569
0.916017
0.91852
0.91894
0.916868
0.917276
0.91069
0.90957
0.875117
0.878388
0.886255
0.887553
0.890347
0.890957
0.888916
0.888706
0.881847
0.879231
0.836686
0.841796
0.850534
0.852937
0.856115
0.856983
0.855034
0.854219
0.847004
0.842937
0.791501
0.798548
0.808343
0.811967
0.815637
0.81685
0.815072
0.813719
0.806123
0.800708
0.739757
0.748807
0.759812
0.764759
0.769041
0.770705
0.7692
0.767427
0.759504
0.752894
0.682027
0.693089
0.705417
0.711777
0.716796
0.719035
0.717935
0.715912
0.70779
0.700209
0.619225
0.632291
0.646001
0.653838
0.65972
0.662672
0.662132
0.660081
0.651953
0.643692
0.552628
0.567629
0.582725
0.59208
0.598943
0.602748
0.602945
0.601123
0.593245
0.584645
0.483791
0.500588
0.517014
0.527892
0.535834
0.540628
0.541746
0.540435
0.533106
0.524537
0.414472
0.432826
0.450461
0.462815
0.471902
0.4778
0.480022
0.479509
0.473052
0.464893
0.346555
0.366071
0.384729
0.39844
0.408683
0.415765
0.419257
0.419823
0.414561
0.407166
0.281934
0.302035
0.321429
0.336282
0.347619
0.355912
0.360808
0.362714
0.358952
0.352639
0.222416
0.24232
0.262022
0.277689
0.28996
0.299418
0.305803
0.309285
0.307305
0.302303
0.169546
0.18833
0.20774
0.223765
0.236688
0.247165
0.255044
0.260313
0.260398
0.256878
0.124471
0.141201
0.159553
0.175345
0.188516
0.199734
0.208999
0.216221
0.218715
0.216544
0.0878637
0.101759
0.118176
0.133021
0.145878
0.157365
0.167698
0.1769
0.182533
0.181816
0.0595059
0.0701999
0.0839487
0.0971629
0.109074
0.12018
0.131042
0.141863
0.151909
0.152098
0.0384666
0.046065
0.0567391
0.0676992
0.0779731
0.0878238
0.0982053
0.109261
0.126137
0.13349
1.00354
1.00673
1.00301
1.00392
1.00388
1.00388
1.00391
1.00301
1.00679
1.0035
0.996036
0.996688
0.996231
0.99811
0.998073
0.998066
0.998093
0.996228
0.996814
0.995999
0.993495
0.989141
0.992394
0.993285
0.993088
0.993081
0.993271
0.992418
0.989268
0.993427
0.994008
0.986399
0.992084
0.991478
0.991146
0.99114
0.991463
0.992108
0.986463
0.99392
0.993248
0.984596
0.991626
0.990048
0.989915
0.989908
0.990035
0.99165
0.984618
0.993145
0.990771
0.982412
0.989766
0.987733
0.988052
0.988049
0.987744
0.989803
0.982407
0.990674
0.987048
0.97954
0.986614
0.984413
0.985193
0.985211
0.984452
0.986681
0.979548
0.986983
0.981665
0.97535
0.98197
0.97978
0.980922
0.980963
0.979838
0.982085
0.975418
0.981677
0.973767
0.96884
0.975081
0.973097
0.974516
0.974589
0.973196
0.975288
0.969034
0.97393
0.962503
0.959063
0.965104
0.963514
0.965164
0.965279
0.963695
0.965463
0.959472
0.962935
0.947075
0.945202
0.951241
0.950215
0.95208
0.952262
0.950544
0.951857
0.945958
0.947955
0.926722
0.926454
0.93272
0.932415
0.934505
0.93479
0.932979
0.933755
0.927782
0.928283
0.900696
0.90206
0.908818
0.909378
0.91173
0.91216
0.910304
0.910495
0.904289
0.903277
0.868333
0.871432
0.878924
0.880476
0.883155
0.883788
0.881938
0.881514
0.874965
0.872459
0.829245
0.834171
0.842601
0.845275
0.848375
0.849282
0.847502
0.846475
0.839505
0.835616
0.783321
0.790155
0.799701
0.803611
0.807245
0.808518
0.806895
0.805344
0.797923
0.792811
0.730793
0.739606
0.750402
0.755654
0.759944
0.761695
0.760343
0.758393
0.750595
0.744418
0.672285
0.683093
0.69524
0.701922
0.706999
0.709356
0.708418
0.70625
0.69823
0.691197
0.608776
0.621555
0.635101
0.643287
0.649285
0.652391
0.652035
0.649877
0.641858
0.634244
0.54158
0.55625
0.571199
0.580939
0.587981
0.591983
0.592396
0.590517
0.582777
0.574907
0.472267
0.488698
0.505
0.516303
0.524493
0.529533
0.530912
0.529603
0.522459
0.514682
0.402604
0.420583
0.438127
0.450945
0.460351
0.466549
0.469086
0.468647
0.462433
0.455101
0.334516
0.353639
0.372244
0.386453
0.39709
0.404529
0.408396
0.409117
0.404164
0.397609
0.269947
0.289594
0.30896
0.324329
0.336127
0.344837
0.35017
0.352322
0.348942
0.343462
0.21074
0.230063
0.249718
0.265882
0.278665
0.288604
0.295491
0.299317
0.297798
0.293611
0.158457
0.176446
0.195731
0.21217
0.225631
0.236647
0.245094
0.250809
0.251446
0.248724
0.114328
0.129907
0.147922
0.163974
0.177667
0.189474
0.199371
0.207134
0.210289
0.208928
0.0792043
0.0915764
0.107176
0.121947
0.135202
0.147264
0.158254
0.168066
0.174469
0.174671
0.0524217
0.0614008
0.073833
0.0865241
0.0985905
0.11016
0.121619
0.133056
0.143899
0.145256
0.0330472
0.0388471
0.0477898
0.0578019
0.0679052
0.0780045
0.0887974
0.100347
0.117638
0.126529
0.999506
1.00348
0.999701
1.00043
1.00044
1.00044
1.00042
0.9997
1.00351
0.999445
0.994637
0.995948
0.995213
0.996661
0.996694
0.996689
0.996649
0.995211
0.996003
0.994562
0.998519
0.993378
0.996586
0.997455
0.997365
0.99736
0.997445
0.996611
0.993441
0.998365
1.00207
0.9939
0.999214
0.998918
0.998701
0.998696
0.998921
0.999257
0.993951
1.00191
1.00162
0.993163
0.999362
0.99826
0.998186
0.998197
0.998274
0.999422
0.993197
1.00149
0.9985
0.990711
0.997208
0.995731
0.996005
0.996025
0.995723
0.997263
0.990741
0.998431
0.993802
0.987003
0.993432
0.991775
0.992419
0.992435
0.991767
0.993484
0.987071
0.993797
0.987239
0.981625
0.987813
0.98612
0.987073
0.987105
0.986157
0.987898
0.981783
0.98733
0.978042
0.973726
0.979685
0.978131
0.979343
0.979405
0.97824
0.979854
0.974048
0.978294
0.965447
0.962454
0.968309
0.967075
0.968528
0.968649
0.967298
0.968652
0.963056
0.965975
0.948685
0.947021
0.952973
0.952216
0.953911
0.954109
0.952612
0.9536
0.948061
0.94969
0.926968
0.926682
0.932921
0.932803
0.934763
0.935059
0.933466
0.933994
0.928338
0.928742
0.899549
0.900702
0.907415
0.908092
0.910373
0.910815
0.909159
0.909161
0.903241
0.902468
0.865795
0.86844
0.875854
0.877468
0.880146
0.880794
0.879122
0.878602
0.8723
0.870371
0.825321
0.829534
0.837846
0.840529
0.843697
0.844634
0.843011
0.841999
0.835275
0.832229
0.778053
0.783904
0.793282
0.797158
0.800922
0.802251
0.800771
0.799327
0.792216
0.788151
0.724265
0.731817
0.742386
0.747575
0.752058
0.753903
0.752687
0.750947
0.743529
0.738594
0.66461
0.67392
0.685753
0.692365
0.697696
0.7002
0.699405
0.69755
0.689981
0.684374
0.600092
0.611208
0.624334
0.632461
0.63877
0.642089
0.6419
0.640155
0.632663
0.626623
0.532036
0.544978
0.559383
0.569098
0.576506
0.580798
0.581421
0.580047
0.572917
0.566717
0.462019
0.476737
0.492387
0.50372
0.512336
0.51775
0.519401
0.518681
0.512231
0.506166
0.391804
0.408132
0.424972
0.437894
0.447788
0.454455
0.45734
0.457565
0.45213
0.446495
0.323307
0.34088
0.358784
0.373181
0.384364
0.392372
0.396683
0.39814
0.394047
0.389127
0.258538
0.27669
0.29541
0.311039
0.323431
0.332804
0.338694
0.341655
0.339221
0.335275
0.199522
0.217225
0.236275
0.252719
0.266121
0.276798
0.284366
0.289084
0.288608
0.285844
0.147905
0.163989
0.182591
0.199232
0.213289
0.225087
0.234329
0.241026
0.242828
0.241432
0.105023
0.11838
0.135366
0.151343
0.165518
0.178097
0.188874
0.197715
0.202208
0.202134
0.0720091
0.0820214
0.0957925
0.109885
0.123314
0.135999
0.147844
0.158762
0.166708
0.168289
0.0471395
0.0537924
0.064061
0.0754379
0.0871703
0.0990486
0.111203
0.123673
0.136277
0.139402
0.0290844
0.0328981
0.03983
0.0483084
0.0575169
0.067282
0.0781866
0.0902614
0.109152
0.121159
0.0221185
0.0250399
0.0304562
0.0373211
0.0449091
0.0531144
0.062708
0.0732504
0.0915216
0.106891
0.0185399
0.0209552
0.0255519
0.031476
0.0381137
0.0453614
0.0539852
0.0635859
0.0801281
0.0990381
0.0154813
0.0175113
0.0214202
0.0264777
0.032177
0.0384206
0.045933
0.0545409
0.0687326
0.0893954
0.0128956
0.0146185
0.0179555
0.022245
0.0270716
0.0323494
0.0387025
0.0461839
0.0578708
0.0774758
0.0107296
0.0121998
0.0150577
0.0186829
0.0227369
0.0271389
0.0323898
0.038675
0.0479355
0.064882
0.00892813
0.0101847
0.0126353
0.0156862
0.0190612
0.0226902
0.0269602
0.0321284
0.0392626
0.0530029
0.00743738
0.00850994
0.0106069
0.0131622
0.0159492
0.0189055
0.0223224
0.0264956
0.031936
0.0425616
0.00620676
0.00711903
0.00890405
0.0110305
0.0133119
0.0156924
0.01839
0.0216928
0.0258216
0.033762
0.00519082
0.00596328
0.00747003
0.00922389
0.011066
0.01295
0.015037
0.0175958
0.0206991
0.0265178
0.00435076
0.00500067
0.00625666
0.00768065
0.00912964
0.0105755
0.0121452
0.0140796
0.0163762
0.0205631
0.00365312
0.00419303
0.00521989
0.0063444
0.00744448
0.00851581
0.00966424
0.0110865
0.0127565
0.0157077
0.00306893
0.00350776
0.00432301
0.00517911
0.00598462
0.00675191
0.00756896
0.00858531
0.00977629
0.0118167
0.00257453
0.00292011
0.00354472
0.00417101
0.004739
0.00526949
0.00583356
0.00654041
0.00737298
0.00876012
0.00215207
0.00241412
0.00287406
0.00331286
0.00369635
0.00404892
0.00442658
0.00490602
0.00547683
0.00640747
0.00178934
0.00197964
0.00230317
0.00259494
0.00284027
0.00306421
0.00330884
0.00362591
0.00400885
0.00462543
0.00147819
0.00160909
0.00182366
0.00200468
0.00215053
0.00228466
0.00243671
0.00263991
0.00288921
0.00329021
0.00121211
0.00129555
0.00142666
0.00152764
0.00160469
0.00167805
0.00176684
0.00189085
0.00204545
0.00229743
0.000985337
0.00103275
0.00110276
0.00114849
0.00118006
0.00121354
0.0012597
0.00132921
0.00141786
0.00156807
0.000793185
0.000814765
0.000842322
0.000851985
0.000855186
0.000863437
0.000881824
0.000914966
0.000959302
0.00103925
0.000631773
0.000635963
0.000635886
0.000623795
0.00061067
0.0006041
0.00060497
0.000613911
0.000629364
0.000662928
0.000497647
0.000490992
0.000474525
0.000450874
0.000429673
0.000415054
0.000405332
0.000399704
0.000397982
0.000403469
0.000387566
0.000374848
0.000350083
0.000321736
0.000297854
0.00027945
0.000264514
0.000251706
0.00024158
0.00023256
0.00029842
0.000282934
0.00025534
0.00022673
0.000203131
0.000184079
0.000167804
0.000153022