/*--------------------------------*- C++ -*----------------------------------*\
| =========                 |                                                 |
| \\      /  F ield         | OpenFOAM: The Open Source CFD Toolbox           |
|  \\    /   O peration     | Version:  4.1                                   |
|   \\  /    A nd           | Web:      www.OpenFOAM.org                      |
|    \\/     M anipulation  |                                                 |
\*---------------------------------------------------------------------------*/
FoamFile
{
    version     2.0;
    format      ascii;
    class       volScalarField;
    location    "1500";
    object      epsilon;
}
// * * * * * * * * * * * * * * * * * * * * * * * * * * * * * * * * * * * * * //

dimensions      [0 2 -3 0 0 0 0];

internalField   nonuniform List<scalar> 
12000
(
0.319491
0.310784
0.309575
0.309275
0.309201
0.309201
0.309276
0.309571
0.310728
0.31943
0.06529
0.0640882
0.0631194
0.0626752
0.0625421
0.0625427
0.0626777
0.0631288
0.0640899
0.0653002
0.0176839
0.017904
0.0175004
0.017264
0.0171753
0.0171762
0.0172656
0.0175017
0.0179069
0.0176966
0.00616446
0.00643713
0.00627651
0.00616347
0.00612295
0.00612293
0.00616428
0.00627742
0.00644104
0.00617768
0.00263635
0.00281037
0.00275911
0.00270639
0.0026757
0.00267609
0.0027061
0.00275425
0.00281152
0.002645
0.00132366
0.00142738
0.00141359
0.00138631
0.00136819
0.00136863
0.00138755
0.00141098
0.00143009
0.00132849
0.000750768
0.000814997
0.00081329
0.000797913
0.000787474
0.000787761
0.000799036
0.000813061
0.000814551
0.0007542
0.000466374
0.000507336
0.000512682
0.000503311
0.000496515
0.000496681
0.000501704
0.000512667
0.000510704
0.000469848
0.000310629
0.000339786
0.000345912
0.000340576
0.000335696
0.000335794
0.000337433
0.000346356
0.000340887
0.000314056
0.00021861
0.000240612
0.000246517
0.000242946
0.000239642
0.000239796
0.000241283
0.000247238
0.000241701
0.000221999
0.000160532
0.000176445
0.000183268
0.000180718
0.000178424
0.000178735
0.000180443
0.000184016
0.000177667
0.000163902
0.000122094
0.000134619
0.000141099
0.000139513
0.000137789
0.000138035
0.000139716
0.000142041
0.000136037
0.000125538
9.56892e-05
0.000106166
0.000111924
0.000110822
0.000109561
0.00010982
0.000111338
0.000112946
0.000107836
9.92553e-05
7.6858e-05
8.60416e-05
9.11373e-05
9.02541e-05
8.94004e-05
8.96658e-05
9.09573e-05
9.22236e-05
8.7856e-05
8.05996e-05
6.29698e-05
7.12676e-05
7.58235e-05
7.5111e-05
7.45494e-05
7.48015e-05
7.59066e-05
7.70652e-05
7.3212e-05
6.69647e-05
5.2421e-05
6.0063e-05
6.42009e-05
6.37087e-05
6.33129e-05
6.3588e-05
6.45454e-05
6.56148e-05
6.21575e-05
5.67296e-05
4.41876e-05
5.1336e-05
5.51627e-05
5.48645e-05
5.4588e-05
5.48784e-05
5.57199e-05
5.67765e-05
5.36946e-05
4.89182e-05
3.75943e-05
4.43901e-05
4.80143e-05
4.78985e-05
4.77487e-05
4.80674e-05
4.88307e-05
4.98259e-05
4.70595e-05
4.28219e-05
3.21709e-05
3.87052e-05
4.22083e-05
4.22682e-05
4.2216e-05
4.25693e-05
4.32734e-05
4.43026e-05
4.18746e-05
3.8068e-05
2.75857e-05
3.3987e-05
3.74196e-05
3.76489e-05
3.77372e-05
3.81792e-05
3.88437e-05
3.98318e-05
3.77001e-05
3.42521e-05
2.35825e-05
2.98967e-05
3.33843e-05
3.38207e-05
3.39883e-05
3.4447e-05
3.51562e-05
3.62268e-05
3.44534e-05
3.13021e-05
1.99623e-05
2.6293e-05
2.98822e-05
3.05695e-05
3.0888e-05
3.14927e-05
3.21897e-05
3.32428e-05
3.17824e-05
2.88761e-05
1.65548e-05
2.28827e-05
2.67846e-05
2.77592e-05
2.81413e-05
2.87956e-05
2.96345e-05
3.08527e-05
2.97844e-05
2.71301e-05
1.31962e-05
1.95751e-05
2.38923e-05
2.52677e-05
2.58952e-05
2.67294e-05
2.75598e-05
2.88103e-05
2.8075e-05
2.56727e-05
9.77002e-06
1.60655e-05
2.1109e-05
2.29189e-05
2.36717e-05
2.45963e-05
2.5707e-05
2.7245e-05
2.69383e-05
2.48605e-05
6.08263e-06
1.23618e-05
1.8111e-05
2.06851e-05
2.18793e-05
2.30124e-05
2.40864e-05
2.58086e-05
2.58579e-05
2.42053e-05
2.52479e-06
8.06483e-06
1.47865e-05
1.80755e-05
1.9663e-05
2.10621e-05
2.25999e-05
2.47732e-05
2.53678e-05
2.4179e-05
1.34057e-06
4.399e-06
1.04586e-05
1.52138e-05
1.77233e-05
1.9459e-05
2.08738e-05
2.3533e-05
2.48644e-05
2.46306e-05
2.13573e-06
3.65801e-06
5.66132e-06
9.11782e-06
1.38283e-05
1.70837e-05
1.92913e-05
2.22795e-05
2.48365e-05
2.49186e-05
4.46339e-06
6.45194e-06
6.93826e-06
7.16603e-06
8.02163e-06
1.09116e-05
1.53039e-05
2.01161e-05
2.38154e-05
2.74823e-05
0.310781
0.598603
0.590746
0.590497
0.590439
0.590439
0.590497
0.590743
0.598724
0.31084
0.0640845
0.0780057
0.0663079
0.0655331
0.0654836
0.0654778
0.0655217
0.0662839
0.0781081
0.0642541
0.0179004
0.0312373
0.0267024
0.0262073
0.0262356
0.0262143
0.0261682
0.0266257
0.0313034
0.0180406
0.00643483
0.0136872
0.0121539
0.0119089
0.0118268
0.0117989
0.0117768
0.0118369
0.0139298
0.00654869
0.00280808
0.00598261
0.00554968
0.00537847
0.00524737
0.00521911
0.00531141
0.00527753
0.00622994
0.00287261
0.00142551
0.00263022
0.00247488
0.00241243
0.00234472
0.00231598
0.00235828
0.00233454
0.0028001
0.00145762
0.000813442
0.00117627
0.00112517
0.00110543
0.00107312
0.00105383
0.00109593
0.00105393
0.00128346
0.000828599
0.000505888
0.00055614
0.000528194
0.000521653
0.000504036
0.000492888
0.000459481
0.000493468
0.000624176
0.000516178
0.000338447
0.00024279
0.000256082
0.000254947
0.000246069
0.000241302
0.000366701
0.000236271
0.00027387
0.000344726
0.00023933
0.00022262
0.000131849
0.000129819
0.000123772
0.000123043
0.000241256
0.000123348
0.000252601
0.000243855
0.000175182
0.000122609
7.17434e-05
7.1367e-05
7.00952e-05
6.6388e-05
0.000140308
6.61472e-05
0.000133968
0.000179488
0.000133339
9.38739e-05
4.12135e-05
4.2225e-05
4.20792e-05
3.86175e-05
7.11876e-05
3.96623e-05
0.000101341
0.000137598
0.00010485
7.27655e-05
2.59727e-05
2.65145e-05
2.5479e-05
2.44665e-05
3.98768e-05
2.62017e-05
7.64244e-05
0.000109174
8.46599e-05
4.84936e-05
1.75789e-05
1.7793e-05
1.63678e-05
1.65627e-05
2.47596e-05
1.84261e-05
5.1685e-05
8.90942e-05
6.98098e-05
3.20215e-05
1.24409e-05
1.27849e-05
1.13926e-05
1.1823e-05
1.61891e-05
1.37978e-05
3.3612e-05
7.43616e-05
5.851e-05
2.44048e-05
9.33064e-06
9.87935e-06
8.37141e-06
8.90683e-06
1.14295e-05
1.05396e-05
2.47301e-05
6.32548e-05
4.96775e-05
2.01983e-05
7.46082e-06
7.84125e-06
6.5695e-06
7.12159e-06
8.68634e-06
8.27576e-06
1.95794e-05
5.46211e-05
4.26044e-05
1.77418e-05
6.41015e-06
6.53378e-06
5.41618e-06
5.87074e-06
7.01586e-06
6.8598e-06
1.62334e-05
4.79052e-05
3.67942e-05
1.61421e-05
5.43955e-06
5.60219e-06
4.70927e-06
5.02213e-06
5.84953e-06
5.73158e-06
1.39206e-05
4.24555e-05
3.19395e-05
1.52389e-05
5.57917e-06
5.00232e-06
4.08259e-06
4.42639e-06
5.12166e-06
5.00497e-06
1.21352e-05
3.81953e-05
2.77495e-05
1.46637e-05
5.43432e-06
4.39499e-06
3.76994e-06
3.987e-06
4.62339e-06
4.50789e-06
1.07959e-05
3.4572e-05
2.4068e-05
1.46266e-05
5.41728e-06
4.50997e-06
3.52634e-06
3.6897e-06
4.29595e-06
4.09713e-06
9.6248e-06
3.18269e-05
2.06961e-05
1.48276e-05
5.24002e-06
4.46474e-06
3.57371e-06
3.46955e-06
3.99117e-06
4.04463e-06
8.73487e-06
2.92836e-05
1.75078e-05
1.48858e-05
5.84054e-06
4.49237e-06
3.63753e-06
3.58717e-06
3.99686e-06
4.02201e-06
7.89685e-06
2.74791e-05
1.43948e-05
1.52246e-05
6.82781e-06
4.3952e-06
3.67846e-06
3.60412e-06
4.01263e-06
3.9784e-06
7.32283e-06
2.54892e-05
1.12295e-05
1.54811e-05
8.29212e-06
4.77503e-06
3.97001e-06
3.86377e-06
4.08205e-06
4.18259e-06
6.73733e-06
2.41836e-05
8.01183e-06
1.65635e-05
1.06564e-05
5.57262e-06
4.44702e-06
4.21809e-06
4.42784e-06
4.48554e-06
6.79e-06
2.23611e-05
4.87834e-06
1.81728e-05
1.32036e-05
7.36358e-06
5.47283e-06
4.84334e-06
4.93173e-06
5.20007e-06
6.73078e-06
2.13259e-05
3.43494e-06
2.15953e-05
1.82368e-05
1.01574e-05
7.11446e-06
6.22171e-06
6.13601e-06
6.32302e-06
9.40111e-06
1.86458e-05
3.74373e-06
2.44037e-05
2.53777e-05
1.6828e-05
1.0318e-05
7.96685e-06
7.95875e-06
8.42145e-06
1.34327e-05
2.05014e-05
0.309573
0.590744
0.580603
0.580351
0.580277
0.580286
0.580333
0.5806
0.590868
0.309699
0.0631168
0.0663584
0.0493319
0.0487479
0.0486344
0.048696
0.0487251
0.049231
0.0664152
0.0633221
0.0174947
0.0267745
0.0153697
0.0145486
0.0144437
0.0138404
0.0144059
0.0157597
0.0268015
0.0176272
0.00627797
0.0121415
0.00681519
0.00717443
0.00712678
0.00787751
0.00680454
0.0062444
0.0122172
0.00637698
0.00275334
0.00546486
0.0031519
0.00108721
0.00112728
0.000284281
0.00160469
0.00411229
0.00554961
0.00280727
0.00140958
0.00242745
0.00145798
7.21136e-05
8.40562e-05
1.1709e-05
0.000684351
0.00128807
0.00248968
0.00143499
0.000811189
0.00110182
0.000626191
1.53019e-05
1.50615e-05
2.97079e-06
0.00024659
0.000577457
0.00116427
0.000826566
0.000510513
0.000517141
0.000371231
8.34592e-06
5.75078e-06
6.91303e-07
0.000124535
0.000239061
0.000490115
0.000518209
0.000344417
0.000251011
0.000196377
6.89394e-06
4.12264e-06
3.92805e-07
5.96499e-05
0.000108877
0.000405488
0.000351011
0.000245053
0.000128741
8.56331e-05
4.66921e-06
2.73595e-06
3.54879e-07
1.59246e-05
5.12335e-05
0.00027844
0.000247521
0.000181781
7.05739e-05
4.09419e-05
3.0084e-06
1.68703e-06
1.64603e-07
7.87457e-06
1.87252e-05
0.000159214
0.000183897
0.00013955
4.1476e-05
1.44772e-05
1.60553e-06
9.97424e-07
1.08457e-07
3.71325e-06
1.97137e-05
8.32932e-05
0.000142657
0.000110498
2.66009e-05
1.65706e-05
9.4871e-07
6.2646e-07
1.7162e-07
1.34996e-06
9.77006e-06
4.86578e-05
0.000113866
8.96172e-05
1.83774e-05
8.22882e-06
6.01976e-07
2.69857e-07
1.31146e-07
6.76354e-07
7.09327e-06
2.90567e-05
9.29868e-05
7.42762e-05
1.38373e-05
6.74574e-06
3.87749e-07
3.91652e-07
2.064e-07
3.80049e-07
5.72181e-06
1.85249e-05
7.73466e-05
6.25531e-05
1.11016e-05
5.68684e-06
3.1842e-07
2.42412e-07
1.94219e-07
2.61238e-07
4.32007e-06
1.28016e-05
6.56134e-05
5.33715e-05
9.65542e-06
4.56646e-06
1.48718e-07
1.40877e-07
1.36886e-07
1.41941e-07
2.53728e-06
9.22132e-06
5.6423e-05
4.60157e-05
8.28133e-06
3.82629e-06
3.33484e-07
1.10103e-07
1.15508e-07
2.06168e-07
1.06351e-06
6.88327e-06
4.93698e-05
3.999e-05
8.73893e-06
3.17433e-06
3.10869e-07
8.78984e-08
1.17777e-07
1.48872e-07
9.90034e-07
5.39382e-06
4.34544e-05
3.49034e-05
8.52569e-06
2.70859e-06
3.2551e-07
9.68243e-08
1.11248e-07
1.19626e-07
6.11237e-07
4.392e-06
3.89435e-05
3.05227e-05
8.43318e-06
1.7338e-06
3.1066e-07
8.50616e-08
1.05891e-07
1.21118e-07
3.47349e-07
3.67976e-06
3.48203e-05
2.66618e-05
8.06573e-06
1.18825e-06
3.04784e-07
1.02324e-07
1.04245e-07
1.24873e-07
2.42684e-07
3.1276e-06
3.18302e-05
2.31954e-05
8.30597e-06
1.0699e-06
2.66587e-07
1.02301e-07
9.67015e-08
1.25315e-07
1.88307e-07
2.71313e-06
2.87371e-05
1.99952e-05
8.78977e-06
1.28267e-06
2.66189e-07
1.19424e-07
1.03668e-07
1.27079e-07
1.97291e-07
2.34062e-06
2.67038e-05
1.70081e-05
9.76566e-06
1.57072e-06
3.45734e-07
1.49364e-07
1.16576e-07
1.40581e-07
1.78501e-07
2.02407e-06
2.4095e-05
1.41744e-05
1.12319e-05
2.26699e-06
4.4972e-07
2.03464e-07
1.4936e-07
1.63059e-07
2.01923e-07
1.69952e-06
2.25526e-05
1.14342e-05
1.20417e-05
3.57683e-06
7.75324e-07
2.88803e-07
2.03281e-07
2.08147e-07
2.14483e-07
1.48595e-06
2.00867e-05
8.75966e-06
1.31756e-05
5.778e-06
1.2319e-06
4.9315e-07
3.11123e-07
2.77228e-07
3.11887e-07
1.22111e-06
1.85721e-05
6.38877e-06
1.48197e-05
8.18957e-06
2.37428e-06
7.5203e-07
4.2223e-07
4.0941e-07
3.83936e-07
1.37208e-06
1.5252e-05
4.92805e-06
1.69171e-05
1.23357e-05
4.30226e-06
1.60337e-06
7.72074e-07
5.69993e-07
6.79263e-07
1.71364e-06
1.32032e-05
0.309273
0.590498
0.580359
0.580046
0.579991
0.579988
0.58005
0.580355
0.590622
0.309405
0.0626718
0.065534
0.048795
0.0482119
0.0479566
0.0481463
0.0480924
0.0487636
0.0656074
0.0628713
0.0172614
0.0261955
0.0141525
0.0130154
0.0148935
0.0129389
0.0145059
0.0141085
0.0262358
0.0173811
0.0061598
0.011923
0.00720434
0.00658261
0.00135072
0.00621618
0.00230375
0.00655908
0.0119449
0.00625319
0.00270492
0.00537357
0.000149934
2.51835e-05
1.05695e-07
1.92961e-05
4.46976e-07
8.6938e-05
0.00539219
0.00275097
0.00138459
0.00241867
1.04577e-05
3.56043e-08
2.54869e-10
3.92854e-08
1.78178e-08
3.68482e-06
0.00242623
0.00140798
0.000796177
0.00111035
8.94152e-06
3.18699e-08
5.13461e-10
3.12458e-08
3.28195e-09
3.79897e-06
0.00111025
0.000810932
0.000501923
0.000522833
5.22667e-06
2.92023e-08
8.59949e-10
2.79875e-08
4.95574e-09
1.38626e-06
0.000523263
0.000510462
0.00033884
0.000255636
5.02013e-06
1.4137e-08
6.52199e-10
2.30968e-08
3.09996e-09
4.81664e-07
0.000256523
0.000345134
0.000241401
0.000130081
2.68773e-06
1.23443e-08
6.23307e-10
1.2018e-08
1.42121e-09
3.66287e-07
0.000132418
0.000246779
0.000179318
7.18705e-05
3.74043e-06
1.03512e-08
5.25724e-10
6.55549e-09
1.85641e-09
2.35491e-07
7.09108e-05
0.000184358
0.000137924
4.29193e-05
2.51758e-06
7.8214e-09
4.00749e-10
3.5575e-09
1.62329e-09
2.31077e-07
4.12745e-05
0.000142517
0.000109116
2.83763e-05
2.37465e-06
5.58708e-09
4.10774e-10
1.40844e-09
1.36564e-09
1.39453e-07
2.44576e-05
0.000113609
8.84831e-05
1.9822e-05
1.98255e-06
4.97086e-09
3.68157e-10
9.28303e-10
1.19653e-09
1.08863e-07
1.59185e-05
9.28898e-05
7.32256e-05
1.49602e-05
1.56924e-06
3.25663e-09
4.72804e-10
5.20103e-10
6.61808e-10
5.37962e-08
1.08195e-05
7.75221e-05
6.16555e-05
1.20896e-05
1.39245e-06
1.49011e-08
5.66282e-10
1.99812e-10
3.29505e-10
9.02251e-08
7.73334e-06
6.59897e-05
5.25863e-05
1.03858e-05
1.13319e-06
6.14579e-09
8.94321e-10
1.86437e-10
2.35549e-10
7.57855e-08
5.8009e-06
5.68533e-05
4.5368e-05
9.09397e-06
1.01295e-06
3.77046e-08
1.36406e-09
1.60298e-10
3.16948e-10
4.7319e-08
4.49289e-06
4.98312e-05
3.93987e-05
9.07334e-06
7.93826e-07
3.39075e-08
1.88458e-09
1.63393e-10
6.11168e-10
4.24913e-08
3.67544e-06
4.38904e-05
3.44082e-05
8.53381e-06
7.89658e-07
3.50607e-08
1.64449e-09
1.07235e-10
5.98467e-10
3.81132e-08
3.11917e-06
3.93887e-05
3.00982e-05
8.61258e-06
7.48452e-07
3.6659e-08
2.01841e-09
5.16386e-10
8.47065e-10
3.38587e-08
2.68928e-06
3.52142e-05
2.63061e-05
8.65247e-06
8.52025e-07
5.57072e-08
3.53336e-09
7.31834e-10
9.91971e-10
2.74218e-08
2.38614e-06
3.22188e-05
2.29172e-05
8.61122e-06
9.37732e-07
7.06122e-08
4.01197e-09
9.25364e-10
1.14886e-09
2.36328e-08
2.08431e-06
2.90307e-05
1.98117e-05
8.96879e-06
1.23402e-06
1.13104e-07
1.10701e-08
1.29063e-09
1.66128e-09
2.16811e-08
1.85049e-06
2.695e-05
1.69508e-05
9.77045e-06
1.55217e-06
1.76345e-07
1.51261e-08
2.86315e-09
1.79466e-09
1.9078e-08
1.56718e-06
2.42394e-05
1.42709e-05
1.10688e-05
2.23148e-06
3.01367e-07
3.90738e-08
4.29414e-09
3.64613e-09
1.6872e-08
1.33771e-06
2.25652e-05
1.17322e-05
1.16432e-05
3.39503e-06
5.43924e-07
7.12368e-08
1.51592e-08
3.52787e-09
1.4989e-08
1.07188e-06
1.99921e-05
9.31412e-06
1.23502e-05
5.07058e-06
8.88346e-07
1.67032e-07
2.51798e-08
1.32646e-08
1.48075e-08
8.5744e-07
1.78245e-05
7.0861e-06
1.32452e-05
6.91754e-06
1.6108e-06
3.09236e-07
7.22817e-08
1.64945e-08
1.89707e-08
5.9823e-07
1.48281e-05
5.13054e-06
1.41727e-05
9.13692e-06
2.6526e-06
6.54565e-07
1.63384e-07
5.72444e-08
2.84073e-08
6.37739e-07
1.13862e-05
0.309199
0.590441
0.58024
0.579983
0.579915
0.57992
0.579989
0.58029
0.590565
0.309331
0.0625384
0.0654961
0.0484564
0.0480025
0.0480512
0.0478616
0.0480934
0.0486241
0.0655517
0.0627354
0.0171719
0.0262336
0.0148151
0.0141707
0.012634
0.014483
0.01334
0.0145001
0.0262582
0.0172926
0.00611965
0.0118518
0.00959635
0.00295055
0.00645604
0.00210233
0.00547989
0.00594357
0.0118512
0.00620544
0.00267312
0.00524698
0.00037729
7.83912e-07
8.87857e-07
3.90336e-07
0.00263333
0.000328764
0.00528293
0.00271986
0.00136596
0.00233799
3.1939e-05
6.09215e-07
1.16484e-07
1.22779e-07
0.000672801
1.12123e-05
0.00236438
0.00138927
0.000785856
0.00106705
2.60051e-06
5.29104e-07
1.71624e-07
1.69401e-07
2.34325e-06
1.95008e-06
0.00108121
0.000798156
0.000494458
0.000500441
1.2484e-06
2.87156e-07
1.30757e-07
8.14788e-08
3.52778e-09
7.40295e-07
0.000506661
0.000503083
0.000333769
0.000247834
1.69302e-06
1.01205e-07
2.80333e-08
6.63474e-08
3.03466e-10
4.15351e-07
0.000247874
0.000340211
0.000238104
0.000121598
1.82922e-06
9.27195e-08
2.29386e-08
4.73882e-08
2.81226e-10
5.02647e-07
0.000122443
0.000243366
0.000176607
7.66992e-05
1.05496e-06
5.07542e-08
1.24112e-08
2.48046e-08
2.62871e-10
3.8786e-07
7.23859e-05
0.000181197
0.000135924
4.95452e-05
1.71146e-06
2.21762e-08
9.75287e-09
9.84621e-09
1.43756e-10
2.84603e-07
4.47658e-05
0.000140316
0.00010767
3.10766e-05
1.05006e-06
8.42957e-09
7.39122e-09
6.28431e-09
1.70157e-10
1.62545e-07
2.7033e-05
0.000111943
8.73801e-05
2.07302e-05
1.01952e-06
7.15846e-09
5.25215e-09
3.42518e-09
1.0679e-10
1.11569e-07
1.70547e-05
9.16115e-05
7.24252e-05
1.50624e-05
8.87839e-07
6.36003e-09
2.38247e-09
1.16077e-09
6.16154e-11
4.86245e-08
1.13376e-05
7.64397e-05
6.10125e-05
1.18759e-05
6.34545e-07
5.22655e-09
2.15212e-09
1.22081e-09
3.48497e-11
8.32219e-08
7.93596e-06
6.50389e-05
5.20376e-05
9.85887e-06
6.3873e-07
3.47456e-09
1.18879e-09
5.74536e-10
4.81688e-11
5.14177e-08
5.91383e-06
5.59955e-05
4.49129e-05
8.54993e-06
6.20333e-07
5.55413e-09
5.06059e-10
5.35667e-10
4.02461e-11
3.1591e-08
4.59999e-06
4.906e-05
3.90236e-05
8.49461e-06
6.4917e-07
4.64535e-09
2.52831e-10
2.59329e-10
2.8556e-11
3.19039e-08
3.70407e-06
4.31894e-05
3.41221e-05
8.36815e-06
6.89985e-07
3.38511e-08
4.1478e-10
2.20592e-10
2.84367e-11
2.85805e-08
3.08843e-06
3.87353e-05
2.98738e-05
8.29885e-06
6.60542e-07
3.15368e-08
7.67093e-10
1.26063e-10
3.16451e-11
2.55499e-08
2.61096e-06
3.46055e-05
2.61379e-05
8.08817e-06
7.46337e-07
3.95235e-08
1.8406e-09
6.79383e-11
3.29881e-11
2.04369e-08
2.24928e-06
3.16308e-05
2.28041e-05
8.18942e-06
8.47975e-07
5.93736e-08
2.44953e-09
7.92853e-11
1.33899e-10
1.66198e-08
1.925e-06
2.84716e-05
1.974e-05
8.63469e-06
1.11585e-06
9.56018e-08
6.47063e-09
2.78694e-10
1.31401e-10
1.48392e-08
1.68033e-06
2.63955e-05
1.69085e-05
9.47944e-06
1.45401e-06
1.66395e-07
1.38069e-08
9.09835e-10
1.92951e-10
1.28913e-08
1.41337e-06
2.37391e-05
1.42352e-05
1.08501e-05
1.96613e-06
2.57745e-07
2.7284e-08
1.37939e-09
3.64494e-10
1.0913e-08
1.2306e-06
2.2126e-05
1.16925e-05
1.15324e-05
3.32092e-06
4.90218e-07
7.42516e-08
1.03985e-08
1.33035e-09
8.24324e-09
9.64336e-07
1.94888e-05
9.22361e-06
1.22413e-05
4.94272e-06
8.68655e-07
1.31815e-07
1.59813e-08
2.50908e-09
7.06787e-09
8.21903e-07
1.77704e-05
6.95383e-06
1.3237e-05
6.8752e-06
1.55679e-06
3.04564e-07
5.95358e-08
8.66882e-09
8.63227e-09
5.72813e-07
1.40539e-05
4.83972e-06
1.40972e-05
9.06332e-06
2.62011e-06
6.23551e-07
1.40167e-07
3.53823e-08
1.14914e-08
6.34852e-07
1.20674e-05
0.309199
0.590442
0.580288
0.57999
0.579926
0.579923
0.579993
0.580287
0.590565
0.30933
0.062538
0.0654552
0.0486708
0.0481544
0.0478462
0.0478414
0.0479942
0.04867
0.0655477
0.0627349
0.0171743
0.0261637
0.0142264
0.0127824
0.0147867
0.0148179
0.0143288
0.0138355
0.0262352
0.0172918
0.00611552
0.0118046
0.00674268
0.00653898
0.00138044
0.00130468
0.00225366
0.00704705
0.0118214
0.00620438
0.00267647
0.00527901
0.000110737
1.12053e-06
9.96841e-08
6.38629e-08
4.49103e-07
5.44952e-05
0.00526407
0.00271907
0.0013683
0.00235513
6.27087e-06
1.0055e-07
3.77723e-08
1.2387e-11
1.64766e-09
1.5388e-06
0.00233177
0.00138879
0.000786255
0.00106768
4.01718e-06
3.20759e-08
1.25775e-08
1.93243e-10
3.90761e-09
5.75021e-07
0.00106084
0.000797782
0.000494754
0.000506881
5.59823e-06
4.53932e-08
1.55958e-08
1.15221e-09
1.11426e-09
3.91747e-07
0.000496142
0.000502865
0.000334237
0.000247637
5.0001e-06
2.24764e-08
1.02191e-08
5.5812e-10
8.13479e-10
2.15412e-07
0.000241417
0.000340157
0.00023807
0.000126758
2.28464e-06
1.52852e-08
7.96518e-09
5.06749e-10
5.07654e-10
1.45623e-07
0.000121972
0.000243329
0.000176946
6.97826e-05
3.8545e-06
8.16975e-09
2.64784e-11
3.59102e-10
3.13633e-10
1.02839e-07
6.58969e-05
0.000181411
0.000136327
4.12806e-05
2.0903e-06
4.312e-09
1.53353e-11
2.93568e-10
2.1658e-10
5.54478e-08
3.81866e-05
0.000140385
0.000107783
2.70744e-05
2.04503e-06
3.64535e-09
6.38535e-11
1.38228e-10
1.08142e-10
3.49505e-08
2.41555e-05
0.000111913
8.73975e-05
1.94986e-05
1.72451e-06
3.15308e-09
4.47191e-11
7.27523e-11
5.42128e-11
2.01155e-08
1.58887e-05
9.15534e-05
7.23458e-05
1.47103e-05
1.46836e-06
4.10976e-09
2.28789e-11
4.25854e-11
2.62603e-11
1.38671e-08
1.08453e-05
7.63605e-05
6.09416e-05
1.17539e-05
1.34255e-06
4.2773e-09
4.44193e-11
3.1944e-11
1.37806e-11
1.19998e-08
7.819e-06
6.49729e-05
5.20126e-05
9.86411e-06
1.15885e-06
2.99785e-08
7.05778e-11
2.32181e-11
1.17666e-11
1.64196e-08
5.88365e-06
5.59419e-05
4.48883e-05
8.67572e-06
7.3268e-07
2.91927e-08
4.3282e-10
1.41649e-11
2.73669e-11
2.29421e-08
4.65598e-06
4.90317e-05
3.90165e-05
7.97823e-06
8.95939e-07
3.83725e-08
9.16062e-11
1.20151e-11
3.42358e-11
2.217e-08
3.81697e-06
4.31729e-05
3.4108e-05
7.59283e-06
7.04602e-07
4.1731e-08
2.06296e-09
1.47335e-11
5.11775e-11
2.20588e-08
3.24369e-06
3.87589e-05
2.98631e-05
7.91411e-06
6.84431e-07
4.9868e-08
1.89046e-09
3.08569e-11
6.95497e-11
2.16382e-08
2.77599e-06
3.46297e-05
2.61252e-05
7.87808e-06
7.1518e-07
4.80396e-08
2.41722e-09
1.59003e-10
9.9154e-11
2.03784e-08
2.41821e-06
3.17017e-05
2.28013e-05
8.09662e-06
8.56462e-07
6.24714e-08
4.13155e-09
2.69549e-10
1.09081e-10
1.90599e-08
2.10103e-06
2.85557e-05
1.97438e-05
8.62053e-06
1.13047e-06
9.84981e-08
6.31339e-09
3.17654e-10
1.06439e-10
1.6928e-08
1.83085e-06
2.65264e-05
1.6922e-05
9.52444e-06
1.48126e-06
1.6402e-07
1.70696e-08
1.22586e-09
1.69996e-10
1.47123e-08
1.5561e-06
2.39113e-05
1.42535e-05
1.09037e-05
1.99412e-06
2.58381e-07
2.74888e-08
2.72763e-09
2.98125e-10
1.46075e-08
1.36511e-06
2.23513e-05
1.17132e-05
1.1579e-05
3.37846e-06
5.00145e-07
7.68989e-08
7.70562e-09
3.54478e-10
1.30279e-08
1.08916e-06
1.98237e-05
9.24669e-06
1.22937e-05
4.97758e-06
8.80526e-07
1.37063e-07
2.15767e-08
4.05009e-09
9.22871e-09
9.29322e-07
1.80406e-05
6.97818e-06
1.32943e-05
6.92986e-06
1.53209e-06
3.19011e-07
5.48448e-08
6.32038e-09
1.05334e-08
6.61337e-07
1.46753e-05
4.86944e-06
1.41865e-05
9.1503e-06
2.65537e-06
6.21499e-07
1.47876e-07
4.26445e-08
1.60612e-08
7.0703e-07
1.16436e-05
0.309274
0.590497
0.580354
0.580061
0.579995
0.579987
0.58006
0.580354
0.590622
0.309404
0.0626732
0.0655341
0.048808
0.048112
0.0481032
0.0481739
0.0481096
0.0487554
0.0655912
0.0628696
0.0172608
0.0261677
0.013933
0.0142185
0.0131288
0.012615
0.0141541
0.014097
0.0261691
0.017378
0.00616083
0.0117997
0.00765894
0.00286176
0.0064432
0.00643305
0.0029455
0.00650391
0.0118388
0.00624947
0.00270259
0.00527651
0.000280027
7.82015e-07
0.000245422
3.42922e-06
7.71677e-07
8.95682e-05
0.00533167
0.00274804
0.00138462
0.00238425
1.39424e-05
5.5905e-07
9.29648e-07
3.39413e-07
5.80399e-07
3.09457e-06
0.00238369
0.00140779
0.000796732
0.00101234
3.28364e-06
2.64469e-07
2.82114e-09
2.6697e-07
3.00748e-07
2.28007e-06
0.0010856
0.000809848
0.000498758
0.000739773
5.68918e-06
1.99956e-07
2.81228e-09
2.29631e-07
1.41517e-07
1.04649e-06
0.000510338
0.000510475
0.00033616
0.000478145
1.13532e-05
1.32749e-07
2.42807e-09
1.62738e-07
6.55891e-08
4.31389e-07
0.000249174
0.000345273
0.00024016
0.000269816
8.93188e-06
5.73933e-08
1.07273e-09
1.16434e-07
3.69858e-08
3.83369e-07
0.00012808
0.000246872
0.000178935
0.00013021
5.55989e-06
4.82699e-08
1.3812e-09
7.97406e-08
1.91322e-08
1.83219e-07
6.92396e-05
0.000184384
0.000138097
6.70891e-05
2.49211e-06
3.87885e-08
8.98791e-10
5.7408e-08
8.79501e-09
1.00512e-07
4.02147e-05
0.000142626
0.000109175
4.36882e-05
2.55433e-06
1.91152e-08
7.85353e-10
2.81168e-08
3.41905e-09
7.93706e-08
2.47306e-05
0.000113606
8.85817e-05
2.97605e-05
2.80201e-06
1.3561e-08
6.37938e-10
2.03117e-08
3.08774e-09
6.82798e-08
1.64498e-05
9.28629e-05
7.32797e-05
1.98364e-05
2.42845e-06
1.01881e-08
5.04614e-10
1.49309e-08
2.37962e-09
6.64758e-08
1.15339e-05
7.75059e-05
6.17284e-05
1.44133e-05
2.15994e-06
5.52116e-09
4.14816e-10
7.26662e-09
1.29733e-09
4.37062e-08
8.61376e-06
6.59815e-05
5.26535e-05
1.15998e-05
1.82041e-06
5.76648e-09
3.32387e-10
5.32823e-09
6.60945e-10
6.58196e-08
6.72044e-06
5.68755e-05
4.535e-05
9.46032e-06
1.59212e-06
1.177e-08
2.77101e-10
2.55929e-09
4.2246e-10
5.39503e-08
5.42294e-06
4.98776e-05
3.94024e-05
8.68122e-06
1.44127e-06
1.04811e-08
1.24713e-08
2.10811e-09
4.32298e-10
4.85799e-08
4.47166e-06
4.39617e-05
3.43658e-05
7.9932e-06
9.98294e-07
5.96682e-08
2.23527e-09
1.02879e-09
4.63986e-10
4.3463e-08
3.80632e-06
3.94678e-05
3.00645e-05
8.29841e-06
7.77014e-07
4.77776e-08
2.57559e-09
8.48404e-10
7.53853e-10
3.85763e-08
3.26272e-06
3.53195e-05
2.6278e-05
8.13612e-06
8.145e-07
5.93929e-08
3.60746e-09
5.09777e-10
9.36458e-10
3.63073e-08
2.88067e-06
3.235e-05
2.29191e-05
8.4781e-06
9.46841e-07
6.93678e-08
4.09901e-09
3.6044e-10
1.31543e-09
3.27669e-08
2.48825e-06
2.91949e-05
1.98356e-05
9.0098e-06
1.25609e-06
1.15228e-07
1.01845e-08
1.29193e-09
1.77831e-09
2.91301e-08
2.20159e-06
2.71543e-05
1.69893e-05
9.89321e-06
1.58296e-06
1.87213e-07
1.63654e-08
2.28491e-09
2.60961e-09
2.44535e-08
1.84999e-06
2.44982e-05
1.43204e-05
1.11988e-05
2.21115e-06
3.24779e-07
4.25523e-08
5.51435e-09
3.65924e-09
2.09356e-08
1.60542e-06
2.29252e-05
1.17821e-05
1.1734e-05
3.49573e-06
5.29868e-07
7.30588e-08
1.31955e-08
5.73681e-09
1.83048e-08
1.25839e-06
2.04064e-05
9.37546e-06
1.24679e-05
5.1688e-06
9.82122e-07
1.68067e-07
3.16176e-08
1.08406e-08
1.81188e-08
1.06689e-06
1.82606e-05
7.14516e-06
1.33255e-05
7.0171e-06
1.61398e-06
3.17448e-07
7.24133e-08
2.03683e-08
2.15834e-08
7.52493e-07
1.5346e-05
5.20033e-06
1.43105e-05
9.28918e-06
2.75036e-06
6.63385e-07
1.72524e-07
5.23774e-08
3.14152e-08
8.23504e-07
1.1572e-05
0.309568
0.590745
0.580538
0.580292
0.580284
0.58029
0.580354
0.580584
0.590866
0.309697
0.0631244
0.0663147
0.0493779
0.048624
0.0486597
0.0486801
0.0487676
0.0493516
0.066371
0.0633201
0.0174959
0.0266566
0.0147513
0.0144353
0.0140231
0.0137964
0.0139151
0.0152644
0.0266615
0.0176188
0.00627549
0.0118428
0.00636855
0.00730141
0.006476
0.00701746
0.00700463
0.00644252
0.011893
0.00636415
0.00274909
0.0052213
0.00282537
0.00033604
0.000103582
9.58778e-05
0.000112934
0.00274188
0.00528433
0.00279605
0.0014074
0.00232171
0.00124827
1.59231e-05
4.952e-06
5.42651e-06
6.28178e-06
0.00116509
0.00235308
0.00143001
0.000810093
0.00103503
0.000551984
2.42101e-06
4.23687e-06
5.60228e-06
7.00665e-06
0.000499645
0.00106599
0.000822222
0.000509926
0.000501826
0.000249691
6.20331e-07
3.47139e-06
1.14206e-06
1.4396e-06
0.000227939
0.0004946
0.000517966
0.000344068
0.000235707
0.000112541
4.95145e-07
1.97264e-06
5.1646e-07
5.25731e-07
8.17251e-05
0.000236572
0.000349839
0.000244607
0.000128873
5.06722e-05
3.9855e-07
1.0999e-06
4.48628e-07
3.40637e-07
8.02803e-05
0.000121207
0.000249594
0.00018153
6.63599e-05
2.41684e-05
2.26848e-07
6.28402e-07
3.28779e-07
4.52382e-07
6.42293e-05
6.46122e-05
0.00018523
0.000139517
4.04991e-05
8.53391e-06
1.57702e-07
3.90119e-07
1.81392e-07
3.9871e-07
3.43986e-05
3.76942e-05
0.000142855
0.000110515
2.67414e-05
1.00682e-05
1.92235e-07
2.94197e-07
2.04421e-07
3.45195e-07
1.34842e-05
2.43762e-05
0.0001135
8.97604e-05
1.90615e-05
5.11577e-06
2.2108e-07
1.62093e-07
2.06148e-07
2.08213e-07
8.90676e-06
1.68961e-05
9.25547e-05
7.4355e-05
1.46843e-05
3.92862e-06
1.32958e-07
2.45979e-07
1.23953e-07
3.48773e-07
9.19939e-06
1.23802e-05
7.70983e-05
6.26251e-05
1.19301e-05
3.19575e-06
2.50222e-07
1.5299e-07
1.78192e-07
2.21371e-07
7.29941e-06
9.56756e-06
6.55188e-05
5.34154e-05
1.01877e-05
2.72352e-06
2.24001e-07
1.58893e-07
1.53695e-07
1.8463e-07
3.93574e-06
7.61435e-06
5.63945e-05
4.60646e-05
8.88778e-06
2.19047e-06
2.24306e-07
1.46664e-07
1.43541e-07
1.86357e-07
1.82196e-06
6.20218e-06
4.93681e-05
3.99979e-05
8.78965e-06
1.82587e-06
2.12963e-07
1.34462e-07
1.25669e-07
1.77437e-07
9.3344e-07
5.1232e-06
4.34572e-05
3.49356e-05
8.66271e-06
1.28155e-06
2.09524e-07
1.26134e-07
1.16972e-07
1.53699e-07
4.74993e-07
4.32626e-06
3.89453e-05
3.05492e-05
8.58347e-06
9.82968e-07
1.77324e-07
1.13769e-07
1.04805e-07
1.54806e-07
2.81817e-07
3.66569e-06
3.48153e-05
2.66731e-05
8.2794e-06
8.99497e-07
1.78615e-07
1.10312e-07
1.09688e-07
1.46288e-07
1.73103e-07
3.17054e-06
3.18262e-05
2.32137e-05
8.49277e-06
9.61072e-07
1.90598e-07
1.17823e-07
1.10875e-07
1.46511e-07
1.80094e-07
2.72858e-06
2.87059e-05
2.00061e-05
8.89798e-06
1.24003e-06
2.29756e-07
1.34626e-07
1.13911e-07
1.49395e-07
1.58897e-07
2.36503e-06
2.66757e-05
1.7039e-05
9.90339e-06
1.60169e-06
3.1903e-07
1.65691e-07
1.3099e-07
1.59092e-07
1.56661e-07
2.02886e-06
2.40677e-05
1.42081e-05
1.1287e-05
2.36876e-06
4.80107e-07
2.1942e-07
1.64884e-07
1.84976e-07
1.72661e-07
1.71617e-06
2.2505e-05
1.14965e-05
1.21412e-05
3.62245e-06
7.41708e-07
3.05479e-07
2.2181e-07
2.28372e-07
2.16159e-07
1.46499e-06
2.00063e-05
8.84951e-06
1.32863e-05
5.86507e-06
1.3244e-06
4.72488e-07
3.01355e-07
2.97201e-07
2.71326e-07
1.18189e-06
1.83839e-05
6.51664e-06
1.49852e-05
8.35903e-06
2.37991e-06
8.10171e-07
4.89669e-07
4.15388e-07
4.12543e-07
1.26382e-06
1.51711e-05
5.07069e-06
1.71488e-05
1.2629e-05
4.49965e-06
1.67904e-06
7.86704e-07
6.1794e-07
5.93531e-07
1.65949e-06
1.31964e-05
0.310726
0.598727
0.590869
0.590623
0.590567
0.590568
0.590622
0.590865
0.598827
0.310856
0.0640857
0.0781141
0.0664203
0.0655978
0.0654985
0.0654946
0.0655892
0.0663781
0.0782055
0.0642808
0.0179028
0.0313028
0.0267998
0.0262189
0.0261488
0.0261269
0.0261545
0.0266658
0.0313548
0.0180598
0.0064373
0.0139277
0.012216
0.011952
0.0118883
0.0118605
0.011853
0.011896
0.0141725
0.0065639
0.00280804
0.00621347
0.00553213
0.00543546
0.00540199
0.00538413
0.00535529
0.00528723
0.00646475
0.00288171
0.00142701
0.002841
0.00251701
0.00242998
0.00240813
0.0023975
0.00239643
0.00235581
0.0029793
0.0014615
0.000811841
0.00116564
0.00104954
0.00111157
0.00109989
0.0010932
0.0010936
0.0010683
0.00136965
0.000830486
0.000507899
0.000965877
0.000750725
0.000525015
0.000517944
0.000514126
0.00051444
0.000494702
0.000662607
0.000516241
0.000339325
0.000666948
0.000475656
0.000258398
0.000252397
0.000250389
0.000250856
0.000237673
0.00028643
0.000345
0.000238849
0.000490319
0.000270053
0.000133735
0.000130088
0.000127992
0.000127928
0.000121766
0.00026762
0.000244107
0.000175726
0.000256667
0.000128089
7.36165e-05
7.00713e-05
6.97311e-05
6.98144e-05
6.45426e-05
0.000162029
0.000180323
0.000134299
0.000178695
6.83614e-05
4.32153e-05
4.12887e-05
4.09629e-05
4.15045e-05
3.75353e-05
8.27925e-05
0.000138069
0.000105754
0.000106417
3.92307e-05
2.71822e-05
2.61176e-05
2.64865e-05
2.74256e-05
2.45339e-05