/*--------------------------------*- C++ -*----------------------------------*\
| =========                 |                                                 |
| \\      /  F ield         | OpenFOAM: The Open Source CFD Toolbox           |
|  \\    /   O peration     | Version:  4.1                                   |
|   \\  /    A nd           | Web:      www.OpenFOAM.org                      |
|    \\/     M anipulation  |                                                 |
\*---------------------------------------------------------------------------*/
FoamFile
{
    version     2.0;
    format      ascii;
    class       volScalarField;
    location    "1500";
    object      k;
}
// * * * * * * * * * * * * * * * * * * * * * * * * * * * * * * * * * * * * * //

dimensions      [0 2 -2 0 0 0 0];

internalField   nonuniform List<scalar> 
12000
(
0.116593
0.114107
0.113799
0.113726
0.113708
0.113708
0.113726
0.113801
0.114126
0.116614
0.0404481
0.0396886
0.039409
0.0392298
0.0391731
0.0391733
0.0392295
0.0394042
0.0396876
0.0404485
0.0169177
0.0167314
0.0166258
0.0164824
0.0164378
0.016437
0.0164828
0.0166278
0.0167323
0.0169199
0.00837507
0.0083237
0.00831146
0.00822736
0.00815733
0.00815916
0.00822723
0.00830098
0.00831679
0.00837161
0.00476611
0.00477655
0.00473112
0.00466823
0.00467061
0.0046709
0.00467617
0.00475322
0.00477612
0.00476176
0.00301695
0.00305831
0.00304294
0.00300461
0.00300226
0.00300344
0.00300824
0.00305867
0.00304616
0.00301468
0.00206682
0.00211496
0.00212824
0.00210495
0.00209546
0.00209679
0.0021066
0.00213848
0.00212627
0.00207044
0.00150627
0.00156382
0.00157811
0.00156032
0.001551
0.00155225
0.00156404
0.00158302
0.00154548
0.00150964
0.00114795
0.00118935
0.0012214
0.00120967
0.0012
0.00120055
0.00120396
0.00122528
0.00119258
0.00115445
0.000907535
0.000940665
0.0009786
0.000970201
0.00096168
0.000962049
0.000967724
0.000982178
0.000940271
0.000915647
0.000739563
0.000776708
0.000806374
0.000799833
0.000793009
0.000793643
0.000798689
0.000809641
0.000778636
0.000748765
0.000616674
0.000654904
0.000679115
0.000674321
0.000668717
0.00066936
0.000674632
0.000682697
0.00065877
0.000627475
0.000524101
0.000560907
0.000582658
0.000579152
0.000574568
0.000575253
0.000580572
0.000586714
0.000566451
0.000536674
0.000452637
0.000487782
0.000507939
0.000505104
0.000501579
0.000502427
0.000507432
0.000512395
0.000494709
0.000467071
0.000396159
0.000430145
0.000449054
0.000446554
0.000444053
0.000445024
0.000449585
0.000454155
0.000438251
0.000412701
0.00035049
0.000383737
0.000401607
0.000399728
0.000397947
0.000399103
0.00040324
0.000407682
0.000392958
0.000369428
0.000312716
0.000345574
0.000362827
0.000361588
0.000360338
0.000361564
0.000365408
0.000370012
0.000356381
0.000334639
0.000280767
0.000313651
0.000330493
0.000330024
0.000329342
0.000330851
0.000334408
0.000338906
0.000326318
0.000306184
0.000253073
0.000286298
0.000303216
0.000303468
0.000303245
0.000304907
0.000308506
0.000313376
0.000301812
0.000283054
0.00022842
0.000262483
0.000279715
0.000280921
0.000281391
0.000283471
0.000286942
0.000291775
0.000281317
0.000263758
0.000205771
0.000241035
0.000259285
0.000261448
0.000262324
0.000264618
0.000268359
0.000273861
0.000264819
0.000248346
0.000184157
0.00022122
0.000240824
0.000244312
0.000246113
0.000249203
0.000252948
0.00025848
0.00025085
0.000235265
0.000162618
0.000201741
0.000223922
0.000229092
0.000231279
0.000234772
0.00023927
0.000245879
0.000240128
0.000225625
0.000139906
0.000181871
0.000207426
0.000215221
0.000218709
0.000223353
0.000227942
0.000234851
0.000230773
0.000217382
0.000114666
0.000159472
0.000190954
0.000201698
0.000205987
0.000211257
0.000217532
0.000226174
0.000224411
0.000212754
8.39473e-05
0.000134023
0.000172388
0.000188299
0.000195409
0.000202041
0.000208275
0.000218068
0.000218397
0.000208837
4.69392e-05
0.000100964
0.000150625
0.000172149
0.000181883
0.000190414
0.000199496
0.000212219
0.000215294
0.00020925
3.03338e-05
6.75224e-05
0.00011981
0.000153188
0.000169999
0.000180509
0.000189338
0.000204624
0.000213168
0.000210115
4.10974e-05
5.91021e-05
7.95909e-05
0.000109661
0.000143415
0.000165993
0.000178943
0.000198566
0.000211222
0.000216485
6.73877e-05
8.62725e-05
9.08678e-05
9.12279e-05
0.000101897
0.000121852
0.000154186
0.00018221
0.00020813
0.000225197
0.114108
0.0231389
0.0208309
0.0208173
0.0208183
0.0208183
0.0208173
0.0208309
0.0231346
0.11409
0.0396875
0.00238292
0.0012763
0.00126075
0.00126138
0.00126136
0.00126076
0.00127708
0.00237965
0.0396081
0.0167306
0.000967542
0.000387376
0.000379443
0.000371804
0.000372262
0.000379876
0.000384591
0.000961165
0.0166486
0.00831941
0.000573504
0.000211742
0.000200074
0.000220676
0.000220596
0.000200584
0.000221134
0.000565204
0.00821475
0.00477527
0.000368985
0.000189985
0.000198684
0.000156225
0.000155873
0.000197209
0.000174609
0.000351296
0.00468778
0.00305616
0.000255256
0.00014087
0.000159762
0.000115928
0.000116592
0.000158241
0.000127881
0.000253408
0.00298995
0.00211224
0.000195824
9.97736e-05
0.000102216
8.34566e-05
8.40359e-05
0.000101418
9.23511e-05
0.000157991
0.00209403
0.00156074
0.000136611
7.07328e-05
7.29301e-05
6.33395e-05
6.49874e-05
7.79712e-05
6.16696e-05
0.000204508
0.00153218
0.00118603
0.000198021
5.08684e-05
5.69749e-05
4.36048e-05
4.18011e-05
5.25654e-05
7.33652e-05
0.000219496
0.00118366
0.000937128
0.000212836
7.75342e-05
7.88329e-05
6.77096e-05
7.3691e-05
2.64549e-05
8.28462e-05
0.000232085
0.000937394
0.00077292
0.000230085
8.95582e-05
9.88348e-05
8.50277e-05
8.16855e-05
2.80613e-05
0.000105615
0.000258656
0.000775454
0.000650744
0.000194897
8.92607e-05
0.000103404
8.50404e-05
8.43213e-05
5.68681e-05
0.000111694
0.000229185
0.000658405
0.000556297
0.000160976
8.39183e-05
9.02732e-05
7.55053e-05
8.03674e-05
6.41214e-05
0.000104223
0.000197411
0.00056816
0.000482622
0.000153299
7.65107e-05
7.97002e-05
6.40955e-05
7.44139e-05
6.86077e-05
9.52665e-05
0.000177647
0.00049769
0.000424337
0.0001544
6.69235e-05
7.20942e-05
5.70792e-05
6.58308e-05
6.4355e-05
8.71707e-05
0.000166228
0.000441846
0.000377171
0.000155434
5.68245e-05
6.8245e-05
4.8306e-05
5.76485e-05
6.01297e-05
7.44132e-05
0.000155968
0.000396984
0.000338167
0.000153534
5.61001e-05
5.93343e-05
4.68084e-05
5.44594e-05
5.78794e-05
6.42689e-05
0.00014619
0.000360136
0.000305258
0.00015141
5.35698e-05
5.60688e-05
4.56398e-05
4.83487e-05
5.43871e-05
5.73764e-05
0.000136564
0.000330021
0.00027688
0.000149197
5.45257e-05
5.24836e-05
4.40955e-05
4.73669e-05
5.33075e-05
5.63591e-05
0.000127988
0.000304536
0.000251914
0.000149232
5.68311e-05
5.31501e-05
4.3962e-05
4.54961e-05
5.20864e-05
5.44269e-05
0.000119668
0.000283729
0.000229469
0.000152203
5.78455e-05
5.13223e-05
4.37688e-05
4.46479e-05
4.99215e-05
5.25588e-05
0.000112979
0.000265447
0.000208667
0.000154783
5.69888e-05
4.86899e-05
4.36701e-05
4.11622e-05
4.88605e-05
5.17858e-05
0.00010586
0.000251017
0.000188838
0.000158938
5.93445e-05
5.24196e-05
4.33673e-05
4.38513e-05
4.70673e-05
5.11106e-05
0.000100429
0.000237424
0.000169003
0.000160859
6.73822e-05
5.37979e-05
4.25764e-05
4.33804e-05
4.9208e-05
5.07744e-05
9.3695e-05
0.000227483
0.00014844
0.000163974
8.1358e-05
5.39318e-05
4.4112e-05
4.37665e-05
4.82775e-05
4.94948e-05
8.88338e-05
0.000216492
0.000125829
0.000168843
0.000102225
5.88418e-05
4.87572e-05
4.61751e-05
4.94738e-05
5.09213e-05
8.32245e-05
0.000209063
0.000100637
0.000179861
0.000125102
6.89701e-05
5.68568e-05
5.27312e-05
5.43035e-05
5.54417e-05
8.10669e-05
0.000198577
7.2319e-05
0.000196957
0.000156134
9.18331e-05
6.898e-05
6.02801e-05
6.09383e-05
6.23837e-05
8.06622e-05
0.000191877
5.68687e-05
0.00022233
0.00019833
0.000122184
9.09837e-05
7.78576e-05
7.49168e-05
7.62003e-05
9.73253e-05
0.000179981
6.00765e-05
0.000251224
0.000254323
0.000187556
0.000123771
9.70698e-05
9.42841e-05
9.66486e-05
0.000126648
0.000175171
0.113799
0.0208314
0.018558
0.0185491
0.0185487
0.0185486
0.0185493
0.018558
0.0208283
0.113759
0.0394073
0.00127747
0.000477689
0.000468683
0.000468317
0.000467444
0.000470333
0.000478077
0.00127541
0.0393047
0.016631
0.000382151
3.64757e-05
3.50535e-05
3.4893e-05
3.4669e-05
3.47202e-05
3.7468e-05
0.000379509
0.0165444
0.0082872
0.000227636
8.33196e-06
2.24165e-06
2.25687e-06
3.71828e-06
3.82305e-06
5.80905e-06
0.000226391
0.00819303
0.00475147
0.000159988
2.60139e-06
2.22551e-07
2.29638e-07
7.95495e-08
4.15219e-07
1.75396e-06
0.000153314
0.00468141
0.00305498
0.000119564
1.75984e-06
8.01019e-08
7.73821e-08
9.4749e-08
4.15056e-07
3.97657e-07
0.000122153
0.00300881
0.00213259
8.52192e-05
1.92348e-06
1.13917e-07
1.00979e-07
1.77167e-07
2.18112e-07
2.80167e-07
7.97681e-05
0.00210897
0.00157719
6.60072e-05
1.32074e-06
1.60549e-07
1.07387e-07
1.21933e-07
2.47258e-07
4.45342e-07
7.53529e-05
0.00156535
0.00121881
4.7865e-05
1.01845e-06
1.90367e-07
1.76187e-07
2.37263e-08
2.62842e-07
3.45255e-07
5.48352e-05
0.00120791
0.000975276
6.69741e-05
9.17338e-07
3.37173e-07
3.10041e-07
2.81012e-07
1.10542e-07
1.15072e-06
3.90945e-05
0.00096964
0.000802061
8.88974e-05
9.60797e-07
5.23925e-07
4.22909e-07
4.38232e-07
1.06397e-07
1.5645e-06
7.27878e-05
0.000799287
0.000673989
0.000101167
9.94042e-07
5.99435e-07
6.47378e-07
6.182e-07
1.46026e-07
9.31262e-07
0.00010029
0.000677473
0.000577305
0.000103206
1.32275e-06
6.63463e-07
5.21481e-07
5.64104e-07
1.40218e-07
7.85473e-07
0.000100725
0.000585427
0.000502277
9.01827e-05
1.63203e-06
6.91371e-07
6.66314e-07
9.41811e-07
2.25894e-07
5.4838e-07
8.63301e-05
0.00051352
0.000442676
8.65424e-05
1.3227e-06
8.94319e-07
6.35401e-07
7.48449e-07
3.81614e-07
7.26875e-07
7.14263e-05
0.000455335
0.000394506
8.34971e-05
1.76755e-06
7.70794e-07
5.17226e-07
7.32166e-07
5.53457e-07
7.70561e-07
6.1323e-05
0.00040842
0.000354761
8.2407e-05
2.12077e-06
1.11678e-06
6.15688e-07
7.76958e-07
6.77216e-07
2.64244e-07
5.44256e-05
0.000369284
0.000321197
8.00585e-05
2.98401e-06
1.06042e-06
6.20832e-07
7.89748e-07
6.72086e-07
9.67147e-07
4.80552e-05
0.000337685
0.000292509
8.4982e-05
4.42937e-06
1.02236e-06
8.79677e-07
8.65557e-07
7.34579e-07
1.20277e-06
4.30383e-05
0.000310013
0.000267152
7.8588e-05
4.73746e-06
1.18743e-06
7.50336e-07
7.73769e-07
8.54657e-07
1.21949e-06
3.89155e-05
0.000288013
0.000244537
8.70132e-05
5.98548e-06
1.35125e-06
1.05708e-06
1.01768e-06
1.04816e-06
1.23571e-06
3.55822e-05
0.000267215
0.000223483
8.548e-05
7.22819e-06
1.48032e-06
9.75785e-07
9.52812e-07
1.16416e-06
1.4132e-06
3.2424e-05
0.000251497
0.000203587
8.95188e-05
9.63589e-06
1.79697e-06
1.08463e-06
1.05514e-06
1.35306e-06
1.60282e-06
3.0174e-05
0.000234774
0.000184355
9.60988e-05
1.40086e-05
2.50853e-06
1.30601e-06
1.22132e-06
1.52762e-06
1.76966e-06
2.75185e-05
0.000223403
0.000165408
0.000112435
1.89553e-05
3.48351e-06
1.759e-06
1.55448e-06
1.84256e-06
2.06097e-06
2.48344e-05
0.00020857
0.000146437
0.000127579
3.08162e-05
5.63697e-06
2.40542e-06
2.03345e-06
2.17592e-06
2.39925e-06
2.18794e-05
0.000199332
0.000126886
0.00013826
4.87667e-05
9.87395e-06
3.71527e-06
2.68111e-06
2.86377e-06
3.07389e-06
1.91558e-05
0.000184242
0.00010626
0.000152865
7.61859e-05
1.74733e-05
6.20901e-06
4.01548e-06
3.70227e-06
3.87743e-06
1.75982e-05
0.000173977
8.60721e-05
0.000170121
0.000105938
3.22684e-05
1.10092e-05
6.31538e-06
5.51789e-06
5.50235e-06
1.63525e-05
0.000153895
7.24225e-05
0.000192265
0.000150376
5.99534e-05
2.28541e-05
1.09066e-05
8.04995e-06
7.94429e-06
1.81561e-05
0.000136284
0.113726
0.0208178
0.0185488
0.0185404
0.018539
0.0185392
0.0185396
0.0185489
0.0208147
0.113683
0.039229
0.00126122
0.000467747
0.000463332
0.000461017
0.000460398
0.00046181
0.000467863
0.00125909
0.0391293
0.0164787
0.000382059
3.47284e-05
3.02604e-05
3.08545e-05
2.9852e-05
3.11339e-05
3.45541e-05
0.000377495
0.0164038
0.00822887
0.000197459
2.89488e-06
1.87019e-06
3.91582e-07
1.8074e-06
5.46843e-07
2.5546e-06
0.000201263
0.00813742
0.00466023
0.000209109
6.49798e-08
1.54498e-09
7.20164e-11
9.15538e-10
2.73267e-11
4.53735e-08
0.00018982
0.00461089
0.00300089
0.000174105
1.9336e-07
2.23111e-13
3.01359e-13
6.84626e-14
4.32953e-14
2.19625e-07
0.000146843
0.00296105
0.00210022
0.000112653
2.65338e-07
6.51127e-12
4.95413e-12
2.26503e-12
8.39475e-13
4.19933e-07
9.73103e-05
0.00207803
0.00155752
7.38161e-05
1.77197e-07
2.02524e-11
1.67766e-12
4.4234e-12
2.5803e-12
6.09393e-07
6.78498e-05
0.00154651
0.00120584
6.18446e-05
2.20881e-07
4.69158e-11
4.76882e-11
2.55557e-12
2.93629e-11
6.84472e-07
5.88869e-05
0.00120212
0.00096628
7.63761e-05
3.4728e-07
9.2193e-12
4.20899e-11
3.1068e-12
1.25771e-10
9.43724e-07
8.22235e-05
0.000968479
0.000795364
0.000101124
6.1286e-07
2.05623e-10
2.45998e-10
3.34331e-12
8.32722e-11
9.04841e-07
8.66468e-05
0.000802179
0.000669089
0.000109918
1.04163e-06
3.55232e-10
7.46134e-10
8.58193e-12
9.15889e-11
8.50414e-07
9.10828e-05
0.000679485
0.000573176
0.000109026
2.06146e-06
1.06452e-09
8.358e-10
4.17724e-11
4.6368e-11
6.31016e-07
7.21181e-05
0.000586222
0.000498486
9.78606e-05
1.99013e-06
2.87059e-09
1.28616e-09
8.41123e-11
7.31374e-11
5.16784e-07
6.32583e-05
0.000513756
0.000439107
9.15773e-05
2.15348e-06
1.67871e-08
1.67482e-09
1.33384e-10
2.13899e-10
4.54174e-07
5.47237e-05
0.000455782
0.000391105
8.50287e-05
2.69386e-06
1.56038e-08
2.02082e-09
4.9782e-10
5.31263e-10
3.69991e-07
4.63037e-05
0.000409462
0.000351628
8.52933e-05
3.0169e-06
6.8622e-08
1.76495e-09
6.50652e-10
1.73593e-09
2.6583e-07
3.97909e-05
0.000370725
0.000318382
8.37839e-05
3.74337e-06
7.45491e-08
2.39279e-09
1.2184e-09
2.14537e-09
2.5513e-07
3.35855e-05
0.000339448
0.000289678
8.12656e-05
4.57613e-06
1.32244e-07
6.89593e-09
6.61269e-10
2.68836e-09
2.29949e-07
3.09703e-05
0.000311777
0.000264709
8.83856e-05
4.97983e-06
1.62632e-07
9.59253e-09
4.21816e-09
3.54216e-09
2.42549e-07
2.90559e-05
0.000289923
0.000242295
8.97133e-05
6.0332e-06
2.74257e-07
1.1405e-08
4.51118e-09
6.18905e-09
2.5231e-07
2.7035e-05
0.000268941
0.000221554
8.94796e-05
7.64626e-06
3.89932e-07
3.19921e-08
4.48225e-09
8.31595e-09
2.67735e-07
2.55816e-05
0.00025329
0.000202031
9.18812e-05
9.75469e-06
6.56919e-07
3.88048e-08
9.49933e-09
1.19514e-08
2.65129e-07
2.40762e-05
0.000236221
0.000183262
9.72235e-05
1.38072e-05
1.14898e-06
1.03741e-07
1.23653e-08
1.50723e-08
2.63443e-07
2.22807e-05
0.000224608
0.000165025
0.000112829
1.86301e-05
1.98171e-06
1.67528e-07
3.30459e-08
2.6571e-08
2.49539e-07
2.00734e-05
0.000209401
0.000147061
0.000125909
2.82831e-05
3.57395e-06
4.59823e-07
5.4215e-08
3.23425e-08
2.27517e-07
1.69001e-05
0.000199308
0.000128996
0.000135148
4.69474e-05
6.82144e-06
8.43729e-07
1.60057e-07
7.24653e-08
1.99524e-07
1.4732e-05
0.000183849
0.000110591
0.000145006
6.86029e-05
1.34227e-05
2.25095e-06
3.3041e-07
1.04826e-07
2.09018e-07
1.06718e-05
0.000171911
9.21605e-05
0.000156977
9.2331e-05
2.3939e-05
4.61578e-06
1.00587e-06
2.81914e-07
2.52951e-07
7.90953e-06
0.000147757
7.44197e-05
0.000168564
0.000120841
3.93e-05
1.03431e-05
2.51958e-06
7.03235e-07
3.52195e-07
5.94924e-06
0.00013338
0.113708
0.0208188
0.0185481
0.0185389
0.0185387
0.0185382
0.0185391
0.0185483
0.0208157
0.113665
0.0391721
0.00126182
0.000470893
0.000460654
0.000459208
0.000460006
0.000460407
0.000467231
0.00125961
0.0390734
0.0164349
0.000372808
3.88875e-05
3.11767e-05
2.97307e-05
3.09998e-05
3.0487e-05
3.451e-05
0.000370892
0.0163582
0.00815612
0.000221411
4.7059e-06
7.5099e-07
2.36102e-06
5.21165e-07
2.31553e-06
1.55143e-06
0.000219046
0.00807767
0.00466745
0.000156644
8.52357e-08
2.99127e-12
1.64762e-09
6.56178e-12
5.11496e-08
8.17083e-08
0.000154304
0.00460634
0.00299783
0.000119389
1.04387e-07
7.46809e-13
1.1477e-14
1.87773e-15
8.66435e-11
7.15104e-08
0.000114457
0.00296024
0.00209191
8.70463e-05
1.47905e-07
5.23633e-13
1.47813e-15
1e-15
7.7034e-13
1.95498e-07
8.26772e-05
0.00207102
0.00154709
6.14155e-05
1.02947e-07
7.12145e-13
1e-15
2.85461e-15
6.18685e-12
4.17912e-07
6.18271e-05
0.00153838
0.00119521
6.25564e-05
1.1437e-07
4.43783e-13
1e-15
1e-15
4.87346e-11
7.12643e-07
4.4614e-05
0.00119433
0.00095768
7.62993e-05
4.4611e-07
2.95289e-12
1.34102e-15
1e-15
6.84187e-11
8.04608e-07
6.35512e-05
0.000961161
0.000787908
9.38607e-05
8.07227e-07
1.07648e-11
4.51478e-15
1e-15
8.97067e-11
1.24802e-06
8.25606e-05
0.000795235
0.000662786
0.000102916
1.08087e-06
3.50279e-11
2.61031e-14
1.11028e-15
1.63545e-10
1.21598e-06
8.92347e-05
0.000673164
0.000568038
0.000106821
1.69441e-06
3.67235e-10
7.5334e-15
2.37983e-15
6.79628e-11
1.02691e-06
8.15595e-05
0.000580824
0.000494282
9.34166e-05
1.89371e-06
5.56274e-10
4.15473e-14
2.39884e-15
8.89949e-11
8.90852e-07
6.68385e-05
0.000509024
0.000435655
8.9347e-05
2.12348e-06
2.06139e-09
9.31945e-14
2.86344e-15
1.2291e-10
6.39738e-07
5.46282e-05
0.000451487
0.000388208
8.50122e-05
2.66364e-06
7.78891e-09
1.96246e-13
3.12611e-15
2.867e-10
5.45917e-07
4.43934e-05
0.000405487
0.000349232
8.54201e-05
3.71568e-06
2.2923e-08
6.7451e-13
4.90768e-15
1.43855e-10
4.20019e-07
3.80087e-05
0.000366962
0.000316255
8.53705e-05
4.18135e-06
5.00865e-08
1.42402e-11
6.54238e-15
1.06966e-10
2.71991e-07
3.31088e-05
0.00033591
0.000288083
8.40509e-05
5.16428e-06
9.41139e-08
3.85029e-10
3.68794e-14
1.82382e-10
2.91054e-07
2.97019e-05
0.000308445
0.000263252
8.52738e-05
6.14751e-06
1.47317e-07
2.91029e-10
1.29272e-13
2.83128e-10
2.44415e-07
2.74578e-05
0.000286729
0.000241086
8.65285e-05
6.45876e-06
2.44939e-07
9.4038e-09
1.34884e-12
3.02096e-10
2.23867e-07
2.55935e-05
0.000265887
0.000220589
8.60583e-05
7.419e-06
3.63609e-07
7.37531e-09
1.39732e-10
3.61601e-10
2.13678e-07
2.35787e-05
0.000250286
0.00020131
8.92947e-05
9.23925e-06
5.57874e-07
3.96389e-08
5.78911e-10
5.56413e-10
2.11335e-07
2.17137e-05
0.000233253
0.000182772
9.51303e-05
1.3306e-05
1.02656e-06
5.05139e-08
4.04928e-09
8.52935e-10
2.0172e-07
1.98099e-05
0.000221614
0.000164707
0.000110679
1.792e-05
1.86617e-06
1.81366e-07
4.06259e-09
1.09489e-09
1.85625e-07
1.7722e-05
0.000206308
0.000146773
0.000123972
2.7082e-05
3.39088e-06
3.02858e-07
3.98e-08
5.81245e-09
1.60861e-07
1.60808e-05
0.000196739
0.000128679
0.000134452
4.58917e-05
6.78267e-06
9.40484e-07
7.71674e-08
5.05151e-09
1.43317e-07
1.31067e-05
0.000180863
0.000109839
0.000143575
6.74005e-05
1.23798e-05
1.82041e-06
3.25334e-07
6.73824e-08
1.12799e-07
1.11553e-05
0.000169055
9.09994e-05
0.000157415
9.18924e-05
2.3749e-05
4.56258e-06
7.14304e-07
9.01921e-08
1.33502e-07
7.7224e-06
0.00014713
7.15767e-05
0.000166712
0.000120089
3.82055e-05
9.80999e-06
2.36095e-06
6.22745e-07
1.69694e-07
7.21937e-06
0.000123948
0.113708
0.0208188
0.0185484
0.0185392
0.0185383
0.0185383
0.018539
0.0185485
0.0208157
0.113665
0.0391727
0.00126145
0.00046721
0.000460223
0.000460079
0.000460244
0.000460805
0.000467063
0.00125963
0.0390738
0.0164283
0.000378411
3.46401e-05
3.00001e-05
3.07555e-05
3.07308e-05
3.07717e-05
3.44251e-05
0.000371135
0.0163581
0.0081766
0.00020758
2.49651e-06
2.06714e-06
3.98493e-07
3.90537e-07
5.34674e-07
2.6363e-06
0.000218677
0.00808008
0.00464734
0.000184731
4.81808e-08
1.21371e-09
1.72211e-11
9.2675e-11
4.84735e-11
5.17033e-08
0.000154186
0.00460764
0.00298523
0.000141146
1.64972e-07
2.0259e-13
1e-15
3.61489e-15
1.09389e-14
1.9297e-07
0.000115178
0.00296225
0.00208825
9.69333e-05
2.41278e-07
1.31006e-12
1e-15
1e-15
6.1761e-14
3.36431e-07
8.40838e-05
0.00207261
0.00154498
7.04645e-05
1.89904e-07
5.78552e-13
1e-15
1e-15
5.52735e-12
5.47887e-07
6.17403e-05
0.00153941
0.00119556
5.83511e-05
1.92779e-07
4.48369e-12
1.20187e-15
1e-15
4.01602e-12
5.30617e-07
4.85126e-05
0.00119505
0.000957609
7.87324e-05
7.62265e-07
1.1766e-11
1.6427e-15
1.19675e-15
2.84219e-12
3.67752e-07
6.64289e-05
0.000961621
0.000788068
0.000100086
9.65855e-07
5.01558e-11
1e-15
1.58683e-15
3.46802e-12
3.27926e-07
8.1583e-05
0.000795859
0.000663216
0.000112451
1.23055e-06
5.84502e-10
2.81252e-14
2.59103e-15
5.22103e-12
3.94118e-07
8.39604e-05
0.000673756
0.000568413
0.000107813
1.72534e-06
1.94153e-09
2.17135e-13
4.06123e-15
8.27083e-12
3.39952e-07
8.05203e-05
0.000580992
0.000494506
0.000101118
1.99919e-06
5.48647e-09
1.25424e-12
2.86135e-15
1.62172e-11
2.86318e-07
6.93336e-05
0.000508982
0.000435887
8.81633e-05
2.77686e-06
1.58823e-08
4.45776e-11
8.97295e-15
3.04521e-11
1.93584e-07
5.71244e-05
0.000451298
0.000388309
7.89981e-05
3.59187e-06
3.19141e-08
2.33318e-11
1.28395e-14
1.54722e-10
2.29254e-07
4.82819e-05
0.000405266
0.000349213
7.92959e-05
3.70731e-06
6.0726e-08
6.05578e-10
4.57173e-14
1.21735e-10
1.98893e-07
4.11994e-05
0.000366737
0.000316232
7.916e-05
4.31475e-06
7.71118e-08
1.24573e-09
4.17401e-13
1.89362e-10
2.01149e-07
3.63533e-05
0.000335771
0.000288091
7.83324e-05
5.08784e-06
1.16258e-07
2.91818e-09
5.54022e-12
2.63512e-10
2.01917e-07
3.28386e-05
0.000308343
0.000263244
8.03109e-05
6.10025e-06
2.74783e-07
7.27754e-09
9.60957e-11
3.78148e-10
2.08626e-07
3.02019e-05
0.000286799
0.000241036
8.22615e-05
6.91385e-06
2.95181e-07
1.26537e-08
9.64776e-11
5.62355e-10
2.38122e-07
2.80288e-05
0.000265996
0.000220497
8.21602e-05
7.54173e-06
4.69533e-07
1.54784e-08
1.18073e-09
7.08828e-10
2.42033e-07
2.56419e-05
0.00025056
0.000201234
8.78337e-05
9.3226e-06
6.18199e-07
4.99878e-08
4.17626e-10
1.05907e-09
2.40817e-07
2.33624e-05
0.000233636
0.000182727
9.47677e-05
1.35024e-05
1.10318e-06
6.53118e-08
7.37016e-09
1.10464e-09
2.26855e-07
2.14287e-05
0.000222197
0.000164731
0.00011155
1.83708e-05
1.96085e-06
2.00564e-07
9.12276e-09
2.61296e-09
2.08648e-07
1.79649e-05
0.000206949
0.000146852
0.000124769
2.74727e-05
3.5849e-06
3.48058e-07
4.89966e-08
5.05301e-09
2.06253e-07
1.73855e-05
0.000197977
0.000128794
0.000135202
4.67514e-05
6.61634e-06
9.70199e-07
8.31255e-08
1.88383e-08
1.90058e-07
1.51361e-05
0.000181851
0.000109989
0.000144322
6.74717e-05
1.34088e-05
1.97142e-06
3.53995e-07
4.76122e-08
1.30113e-07
1.27732e-05
0.000172796
9.11557e-05
0.000158176
9.28062e-05
2.27471e-05
4.68984e-06
7.44263e-07
1.08659e-07
1.74127e-07
9.46866e-06
0.000147452
7.18099e-05
0.000167932
0.000121593
3.97138e-05
9.53917e-06
2.36886e-06
6.53181e-07
2.318e-07
8.09542e-06
0.000133598
0.113726
0.0208178
0.0185489
0.0185396
0.0185391
0.0185391
0.0185396
0.018549
0.0208147
0.113684
0.0392282
0.00126136
0.000467898
0.000461455
0.000460159
0.000460422
0.000461462
0.00046804
0.00125911
0.0391301
0.0164809
0.000380703
3.46976e-05
3.12616e-05
3.0928e-05
2.93899e-05
3.13099e-05
3.45664e-05
0.000378997
0.0164045
0.00822242
0.000201684
3.4292e-06
7.19622e-07
1.99765e-06
2.10441e-06
7.49935e-07
2.54438e-06
0.000198239
0.00814599
0.00467516
0.000196957
8.79499e-08
2.92248e-12
3.73679e-09
2.02372e-09
3.10562e-12
4.76819e-08
0.000198727
0.00461308
0.0030022
0.000156507
1.45398e-07
1.45422e-12
1.54481e-12
4.37508e-14
5.54948e-13
2.46843e-07
0.000161196
0.00296197
0.00210594
0.000105032
1.93014e-07
3.11862e-12
2.56586e-11
4.81774e-13
7.16922e-13
5.05278e-07
0.000104674
0.00207786
0.00155392
6.8818e-05
2.74643e-07
3.28513e-12
1.21711e-11
1.39011e-12
2.28651e-12
6.58544e-07
6.90378e-05
0.001547
0.00120349
4.97895e-05
3.59738e-07
8.17678e-12
1.95231e-11
2.03204e-12
2.13555e-12
8.12061e-07
6.36882e-05
0.00120323
0.000963994
2.53173e-05
3.43317e-07
2.14748e-11
2.24057e-10
1.94688e-12
7.87614e-12
1.16295e-06
8.63112e-05
0.000969517
0.000793884
4.74234e-05
6.98886e-07
2.29981e-11
1.93107e-10
3.0184e-12
6.72014e-12
1.07945e-06
0.000101425
0.000802935
0.00066853
8.16113e-05
1.23932e-06
4.53442e-11
2.3123e-10
2.86922e-12
4.73073e-11
1.07399e-06
9.69375e-05
0.000680224
0.000573177
8.78657e-05
1.2072e-06
1.87611e-10
2.67567e-10
6.34172e-12
1.13226e-10
7.73637e-07
8.35997e-05
0.000586489
0.000498827
8.75644e-05
1.70901e-06
3.22401e-10
4.23518e-10
8.34049e-12
2.53912e-10
7.64835e-07
7.15311e-05
0.000513842
0.000439535
8.2789e-05
1.58938e-06
8.75192e-10
3.47666e-10
9.98987e-12
2.87017e-10
6.231e-07
6.1627e-05
0.000455718
0.000391528
8.38454e-05
2.03928e-06
5.78599e-09
5.50724e-10
1.11706e-11
4.61014e-10
6.20061e-07
5.48708e-05
0.000409312
0.000351852
8.31044e-05
3.06878e-06
1.30575e-08
8.22862e-10
1.77242e-11
1.55075e-09
5.5875e-07
4.93079e-05
0.000370631
0.000318608
8.46175e-05
3.59166e-06
4.89016e-08
3.45416e-09
4.19189e-11
2.96723e-09
4.29697e-07
4.43577e-05
0.000339494
0.000289902
8.53157e-05
4.18201e-06
1.01343e-07
9.41663e-10
7.19992e-11
3.13888e-09
4.06773e-07
3.98842e-05
0.000312007
0.000264817
8.59241e-05
5.14065e-06
1.54114e-07
3.30657e-09
2.89837e-10
8.0173e-09
3.69311e-07
3.65723e-05
0.000290274
0.000242181
8.21999e-05
5.78446e-06
2.29333e-07
1.29705e-08
7.52693e-10
7.68193e-09
3.86271e-07
3.36341e-05
0.000269424
0.000221396
8.41134e-05
7.76527e-06
3.83344e-07
1.67172e-08
2.62227e-09
9.13307e-09
3.95748e-07
3.17857e-05
0.000253972
0.000201961
9.15677e-05
1.00959e-05
6.70164e-07
5.28954e-08
6.193e-09
1.19886e-08
4.00477e-07
2.91163e-05
0.000237048
0.000183311
9.88409e-05
1.48604e-05
1.28712e-06
9.07852e-08
7.63481e-09
1.60418e-08
3.67947e-07
2.71908e-05
0.000225731
0.000165221
0.000115606
1.97916e-05
2.18194e-06
2.50847e-07
3.47922e-08
2.52088e-08
3.45825e-07
2.40074e-05
0.000210662
0.000147365
0.000128045
3.03067e-05
3.97556e-06
4.38296e-07
5.67017e-08
3.62595e-08
3.18181e-07
2.15852e-05
0.00020131
0.000129338
0.000136601
4.88538e-05
7.27039e-06
1.09444e-06
2.01496e-07
8.52077e-08
2.72556e-07
1.76113e-05
0.000186057
0.000111047
0.000146726
7.04406e-05
1.48014e-05
2.28274e-06
3.60641e-07
1.12e-07
2.66378e-07
1.47885e-05
0.000174907
9.26362e-05
0.000158027
9.42022e-05
2.3585e-05
4.92229e-06
1.103e-06
3.33724e-07
3.09283e-07
1.05725e-05
0.00015109
7.5035e-05
0.000170657
0.000123681
4.15531e-05
1.03925e-05
2.49692e-06
7.17554e-07
4.03438e-07
8.93531e-06
0.000137671
0.113801
0.0208314
0.0185574
0.0185489
0.0185484
0.0185484
0.018549
0.018558
0.0208284
0.113759
0.0394025
0.00127776
0.000481504
0.00047232
0.000466957
0.000466863
0.000468201
0.00047957
0.00127564
0.039305
0.0166286
0.000382606
3.26515e-05
3.56831e-05
3.43649e-05
3.43185e-05
3.45552e-05
3.28836e-05
0.000381152
0.0165491
0.00828715
0.000229126
8.25045e-06
6.73554e-06
2.54423e-06
2.99606e-06
3.33389e-06
3.48614e-06
0.000225779
0.00820889
0.00476093
0.000160941
2.87048e-06
1.88976e-07
5.38744e-08
9.36694e-08
1.01285e-07
1.12368e-06
0.00015928
0.00469744
0.00305893
0.000120413
1.90234e-06
1.87939e-07
2.59183e-07
3.03669e-07
2.82637e-07
1.15207e-06
0.000116663
0.0030226
0.00213698
8.5044e-05
2.18474e-06
5.07573e-07
6.07069e-07
6.0154e-07
4.78654e-07
9.86795e-07
8.31575e-05
0.00211536
0.00157818
6.67352e-05
1.36291e-06
7.19585e-07
5.6239e-07
8.53962e-07
6.90281e-07
6.65115e-07
6.32573e-05
0.00157112
0.00122062
4.76099e-05
1.20328e-06
7.9451e-07
5.34931e-07
1.00405e-06
8.00523e-07
7.67955e-07
4.3653e-05
0.00121911
0.00097579
6.40902e-05
9.13472e-07
1.12871e-06
1.26574e-06
1.34671e-06
1.35192e-06
4.34696e-07
6.17819e-05
0.000979334
0.000802664
8.99033e-05
6.64605e-07
1.23262e-06
1.56847e-06
1.69667e-06
1.41712e-06
6.31797e-07
8.59397e-05
0.000808772
0.000674837
0.0001015
9.13068e-07
1.50208e-06
1.6153e-06
1.86002e-06
1.79813e-06
6.01651e-07
9.39163e-05
0.000683199
0.000577947
0.000101646
1.36835e-06
1.16084e-06
1.46384e-06
1.53511e-06
1.55904e-06
5.95496e-07
8.72008e-05
0.000587586
0.000502824
9.73106e-05
1.80388e-06
1.21541e-06
1.47782e-06
1.94499e-06
2.49474e-06
5.58157e-07
8.26905e-05
0.000513293
0.000443266
9.32089e-05
2.25671e-06
1.18339e-06
1.08235e-06
1.55236e-06
1.97138e-06
4.52986e-07
7.55947e-05
0.000454355
0.000394987
8.68611e-05
1.62461e-06
8.92598e-07
1.11331e-06
1.09685e-06
1.43027e-06
4.33961e-07
6.83698e-05
0.000407509
0.000355231
8.76279e-05
2.81064e-06
9.10358e-07
9.7452e-07
1.20431e-06
1.69489e-06
3.60449e-07
6.05842e-05
0.000368663
0.000321614
8.77014e-05
3.18318e-06
9.92661e-07
1.09749e-06
9.71828e-07
1.46942e-06
4.11605e-07
5.34501e-05
0.000337339
0.00029285
8.62408e-05
3.64784e-06
1.05206e-06
1.07883e-06
9.90846e-07
1.64845e-06
4.04342e-07
4.69039e-05
0.000309833
0.000267421
8.77638e-05
4.34762e-06
1.07866e-06
1.00675e-06
9.06797e-07
1.63205e-06
6.51681e-07
4.20053e-05
0.000287961
0.000244708
8.91697e-05
6.10625e-06
1.33958e-06
1.01566e-06
9.7873e-07
1.48815e-06
9.29628e-07
3.72585e-05
0.000267154
0.000223651
8.92869e-05
7.49214e-06
1.48146e-06
1.10532e-06
1.02982e-06
1.52205e-06
1.23437e-06
3.41442e-05
0.000251546
0.000203768
9.18244e-05
9.57418e-06
1.8206e-06
1.3042e-06
1.1552e-06
1.60523e-06
1.29516e-06
3.05352e-05
0.000234677
0.000184479
9.7832e-05
1.3952e-05
2.52295e-06
1.57454e-06
1.41029e-06
1.74987e-06
1.49166e-06
2.82018e-05
0.000223356
0.000165625
0.000114544
1.91317e-05
3.70396e-06
2.01943e-06
1.69117e-06
2.0718e-06
1.86074e-06
2.45862e-05
0.000208368
0.000146674
0.000128608
3.05049e-05
5.90353e-06
2.86059e-06
2.31649e-06
2.44357e-06
2.24282e-06
2.21298e-05
0.000199285
0.000127307
0.000140088
5.05927e-05
1.0439e-05
4.20769e-06
3.00069e-06
3.16166e-06
3.09249e-06
1.87004e-05
0.000183789
0.000106925
0.000154851
7.80823e-05
1.92474e-05
7.10098e-06
4.53172e-06
4.15553e-06
3.9467e-06
1.59403e-05
0.000173582
8.71225e-05
0.000173073
0.000110134
3.43283e-05
1.24182e-05
6.82809e-06
6.07544e-06
6.01936e-06
1.56958e-05
0.000153222
7.37097e-05
0.000196118
0.000155242
6.49965e-05
2.47931e-05
1.23627e-05
8.89321e-06
8.34308e-06
1.83853e-05
0.000134102
0.114126
0.0231356
0.0208289
0.0208153
0.0208163
0.0208163
0.0208153
0.020829
0.0231333
0.114084
0.0396859
0.00238057
0.00127598
0.00125954
0.00125952
0.00125954
0.00125969
0.0012764
0.00237783
0.0395923
0.0167295
0.000963546
0.000380477
0.000380296
0.000380623
0.000380914
0.000380965
0.000381637
0.000959466
0.0166303
0.00831302
0.000567555
0.000226505
0.000196611
0.000196778
0.000195941
0.000195389
0.000226738
0.00055549
0.00819639
0.00477374
0.000352454
0.000155341
0.000203858
0.000206175
0.00020786
0.000209297
0.000159519
0.000346961
0.00466322
0.00304053
0.000252585
0.00011963
0.000167723
0.000170227
0.00017427
0.000175377
0.000118049
0.000229872
0.0029816
0.00212661
0.000166416
8.73871e-05
0.000111643
0.000113155
0.00011309
0.000113054
8.56687e-05
0.000170941
0.00206913
0.00152975
0.00019213
6.16953e-05
7.56333e-05
7.59568e-05
7.64128e-05
7.47069e-05
6.13085e-05
0.000115479
0.00154024
0.00118896
0.000180493
4.16956e-05
6.00646e-05
6.12737e-05
5.72132e-05
5.92419e-05
4.89591e-05
0.000173725
0.00118103
0.000933938
0.000133985
2.84074e-05
8.42038e-05
8.67772e-05
8.12699e-05