/*--------------------------------*- C++ -*----------------------------------*\
| =========                 |                                                 |
| \\      /  F ield         | OpenFOAM: The Open Source CFD Toolbox           |
|  \\    /   O peration     | Version:  4.1                                   |
|   \\  /    A nd           | Web:      www.OpenFOAM.org                      |
|    \\/     M anipulation  |                                                 |
\*---------------------------------------------------------------------------*/
FoamFile
{
    version     2.0;
    format      ascii;
    class       volScalarField;
    location    "1500";
    object      nut;
}
// * * * * * * * * * * * * * * * * * * * * * * * * * * * * * * * * * * * * * //

dimensions      [0 2 -1 0 0 0 0];

internalField   nonuniform List<scalar> 
12000
(
0.0038294
0.00377062
0.00376492
0.00376372
0.00376341
0.0037634
0.00376369
0.00376509
0.00377249
0.00383148
0.00225524
0.00221205
0.00221447
0.00220993
0.00220824
0.00220824
0.00220981
0.0022136
0.00221188
0.00225493
0.00145662
0.00140721
0.00142154
0.00141625
0.00141587
0.00141566
0.00141619
0.00142179
0.00140713
0.00145594
0.00102406
0.000968686
0.000990555
0.000988414
0.000978088
0.000978529
0.00098825
0.000987917
0.000966492
0.00102102
0.000775473
0.000730647
0.000730132
0.000724697
0.000733755
0.000733741
0.000727243
0.00073827
0.000730217
0.000771528
0.000618877
0.000589748
0.000589531
0.000586083
0.000592913
0.000593188
0.000586971
0.000596742
0.000583964
0.000615696
0.000512084
0.000493958
0.00050123
0.000499771
0.000501841
0.000502294
0.000499851
0.000506208
0.000499529
0.000511542
0.00043784
0.000433829
0.000437188
0.000435346
0.000436048
0.000436602
0.000438823
0.000439929
0.000420922
0.000436549
0.000381811
0.000374678
0.000388144
0.000386689
0.000386063
0.000386305
0.000386616
0.000390113
0.000375497
0.000381932
0.000339077
0.000330975
0.000349628
0.000348704
0.000347329
0.000347371
0.000349317
0.000351162
0.000329207
0.000339898
0.000306641
0.000307715
0.000319322
0.000318596
0.00031721
0.000317163
0.00031817
0.000320606
0.000307117
0.000307858
0.000280323
0.000286741
0.000294175
0.000293334
0.000292088
0.000292128
0.000293178
0.000295315
0.000287114
0.000282267
0.000258351
0.000266708
0.000272989
0.000272396
0.000271186
0.000271194
0.000272467
0.0002743
0.000267796
0.000261162
0.000239913
0.000248877
0.000254783
0.000254412
0.000253269
0.000253373
0.000254778
0.000256219
0.00025071
0.000243598
0.00022431
0.000233658
0.000239351
0.000238939
0.000238049
0.000238286
0.000239655
0.000240875
0.000236105
0.000228911
0.000210905
0.00022065
0.000226102
0.000225721
0.000225113
0.000225443
0.000226728
0.000227974
0.000223585
0.000216517
0.000199178
0.000209364
0.000214781
0.000214476
0.000214075
0.000214393
0.00021567
0.000217023
0.000212883
0.000206027
0.000188718
0.000199458
0.000204737
0.000204649
0.000204445
0.000204954
0.000206112
0.000207466
0.000203647
0.000197035
0.000179172
0.000190594
0.000196042
0.00019609
0.000196044
0.000196554
0.000197946
0.0001995
0.000195779
0.000189418
0.000170227
0.000182445
0.000188181
0.000188651
0.00018884
0.000189424
0.00019077
0.000192357
0.000188926
0.000182796
0.000161592
0.000174896
0.00018124
0.000181899
0.000182218
0.000182949
0.000184362
0.000186326
0.000183193
0.000177331
0.000152901
0.000167513
0.000174674
0.000175729
0.00017649
0.000177475
0.000178891
0.000180883
0.00017819
0.000172512
0.000143767
0.000160076
0.00016848
0.000170159
0.000171069
0.000172269
0.000173868
0.000176357
0.000174236
0.000168874
0.000133494
0.000152078
0.000162073
0.000164986
0.000166247
0.000167973
0.000169673
0.000172298
0.000170724
0.00016566
0.00012112
0.000142468
0.000155465
0.000159753
0.000161323
0.000163302
0.000165668
0.000168982
0.000168253
0.000163866
0.000104271
0.000130773
0.000147678
0.000154269
0.000157071
0.000159647
0.000162085
0.000165829
0.000166013
0.000162162
7.85395e-05
0.000113758
0.000138093
0.000147557
0.000151419
0.00015493
0.00015849
0.000163618
0.000164446
0.00016298
6.17744e-05
9.32791e-05
0.000123526
0.000138821
0.000146754
0.000150703
0.000154568
0.000160133
0.000164479
0.000161317
7.11747e-05
8.59416e-05
0.000100705
0.000118702
0.000133864
0.000145157
0.000149387
0.000159274
0.000161671
0.000169268
9.15669e-05
0.000103824
0.000107106
0.000104525
0.000116494
0.000122468
0.000139807
0.000148541
0.000163703
0.000166079
0.00377065
8.04989e-05
6.61087e-05
6.605e-05
6.6063e-05
6.60629e-05
6.605e-05
6.61091e-05
8.04529e-05
0.00376878
0.00221206
6.55144e-06
2.21099e-06
2.18294e-06
2.18677e-06
2.18688e-06
2.18336e-06
2.21447e-06
6.52485e-06
0.00219741
0.00140735
2.69717e-06
5.05776e-07
4.94439e-07
4.74221e-07
4.75775e-07
4.96308e-07
4.99964e-07
2.65612e-06
0.00138276
0.000968034
2.16273e-06
3.32003e-07
3.0252e-07
3.70584e-07
3.71192e-07
3.07475e-07
3.71804e-07
2.06399e-06
0.000927421
0.00073085
2.04818e-06
5.85348e-07
6.60554e-07
4.18604e-07
4.18977e-07
6.59002e-07
5.19932e-07
1.78281e-06
0.000688493
0.000589693
2.22947e-06
7.21649e-07
9.52207e-07
5.15852e-07
5.28256e-07
9.55622e-07
6.30453e-07
2.06399e-06
0.000551983
0.000493631
2.93405e-06
7.96261e-07
8.5065e-07
5.84138e-07
6.03114e-07
8.44664e-07
7.28304e-07
1.75035e-06
0.00047628
0.000433362
3.02017e-06
8.52492e-07
9.17645e-07
7.16357e-07
7.71174e-07
1.19081e-06
6.93628e-07
6.03053e-06
0.000409321
0.000374062
1.45357e-05
9.09411e-07
1.14593e-06
6.95433e-07
6.51714e-07
6.78156e-07
2.05028e-06
1.58326e-05
0.00036578
0.00033025
1.83133e-05
4.10347e-06
4.30844e-06
3.33365e-06
3.97204e-06
2.61082e-07
5.0079e-06
1.91911e-05
0.000324306
0.000306917
3.88594e-05
1.00617e-05
1.23187e-05
9.28271e-06
9.04571e-06
5.05098e-07
1.51767e-05
4.49454e-05
0.000301522
0.000285828
3.64172e-05
1.73989e-05
2.27903e-05
1.54677e-05
1.65704e-05
4.08861e-06
2.8309e-05
4.66476e-05
0.000283541
0.000265637
3.2051e-05
2.44028e-05
2.76616e-05
2.01379e-05
2.37591e-05
9.27957e-06
3.73111e-05
4.58936e-05
0.000266113
0.000247616
4.3615e-05
2.99706e-05
3.21301e-05
2.25896e-05
3.00898e-05
1.71098e-05
4.43291e-05
5.49532e-05
0.000250213
0.000232139
6.70032e-05
3.24001e-05
3.65887e-05
2.57379e-05
3.29892e-05
2.30242e-05
4.95649e-05
7.39869e-05
0.000236285
0.000218821
8.90967e-05
3.1146e-05
4.24283e-05
2.50868e-05
3.35811e-05
2.84705e-05
4.72843e-05
8.853e-05
0.00022423
0.000207179
0.000105035
3.79649e-05
4.04081e-05
3.00163e-05
3.74809e-05
3.471e-05
4.49197e-05
9.82373e-05
0.000213705
0.000196844
0.000116294
4.02916e-05
4.33032e-05
3.46128e-05
3.58359e-05
3.7945e-05
4.31914e-05
0.000103396
0.000204618
0.000187519
0.000124108
4.91907e-05
4.4252e-05
3.71602e-05
4.02072e-05
4.37218e-05
4.98765e-05
0.000105906
0.000196601
0.000178822
0.000131527
5.2101e-05
5.08253e-05
4.26051e-05
4.20865e-05
4.76738e-05
5.32682e-05
0.000106207
0.000189688
0.000170779
0.000142182
5.54162e-05
5.39383e-05
4.57338e-05
4.49986e-05
4.85129e-05
5.51518e-05
0.000106409
0.000183431
0.00016282
0.000147417
5.3956e-05
4.73093e-05
4.86729e-05
4.13284e-05
5.00149e-05
5.89093e-05
0.000104788
0.000178178
0.000155072
0.00015333
6.04881e-05
5.53903e-05
4.7364e-05
4.98807e-05
4.99552e-05
5.81279e-05
0.000103921
0.000173247
0.000146825
0.000156446
6.99648e-05
5.79826e-05
4.48513e-05
4.72148e-05
5.45248e-05
5.76886e-05
0.000100051
0.000169488
0.000137765
0.000158946
8.72492e-05
5.95598e-05
4.76091e-05
4.78328e-05
5.22761e-05
5.54183e-05
9.69885e-05
0.000165489
0.000126894
0.000165733
0.000113421
6.52588e-05
5.38925e-05
4.96647e-05
5.39653e-05
5.57951e-05
9.25245e-05
0.000162658
0.000113769
0.000175778
0.000132178
7.68254e-05
6.54242e-05
5.93284e-05
5.99384e-05
6.16739e-05
8.71085e-05
0.000158711
9.64885e-05
0.000192117
0.000166169
0.000103075
7.82487e-05
6.7522e-05
6.77678e-05
6.7356e-05
8.69995e-05
0.000155375
8.47362e-05
0.000206007
0.00019412
0.000132278
0.00010472
8.76869e-05
8.23217e-05
8.26479e-05
9.06808e-05
0.000156356
8.67656e-05
0.000232761
0.000229383
0.000188137
0.000133624
0.000106445
0.000100525
9.98266e-05
0.000107467
0.000134706
0.00376494
6.61119e-05
5.33855e-05
5.33576e-05
5.33625e-05
5.33607e-05
5.33606e-05
5.33858e-05
6.60784e-05
0.00376075
0.00221437
2.21334e-06
4.16299e-07
4.05551e-07
4.05862e-07
4.0384e-07
4.08603e-07
4.1783e-07
2.20431e-06
0.00219571
0.00142289
4.90899e-07
7.79083e-09
7.60123e-09
7.58648e-09
7.81583e-09
7.53121e-09
8.01708e-09
4.83647e-07
0.00139753
0.000984553
3.84107e-07
9.16766e-10
6.30365e-11
6.43223e-11
1.57957e-10
1.93314e-10
4.86365e-10
3.77562e-07
0.000947364
0.000737969
4.21541e-07
1.93233e-10
4.10004e-12
4.21014e-12
2.00341e-12
9.66955e-12
6.73281e-11
3.81191e-07
0.000702607
0.000595892
5.30026e-07
1.91177e-10
8.00776e-12
6.41141e-12
6.90035e-11
2.26557e-11
1.10489e-11
5.39393e-07
0.000567782
0.000504588
5.93206e-07
5.31757e-10
7.63262e-11
6.09308e-11
9.50905e-10
1.73631e-11
1.22337e-11
4.91867e-07
0.000484289
0.000438537
7.58258e-07
4.22896e-10
2.7796e-10
1.80477e-10
1.9356e-09
4.41824e-11
7.46657e-11
1.04266e-06
0.00042556
0.000388176
8.21461e-07
4.75368e-10
4.73106e-10
6.77668e-10
1.2898e-10
1.04237e-10
9.85339e-11
6.67395e-07
0.000374104
0.000349332
3.13573e-06
8.84422e-10
2.19131e-09
3.16207e-09
2.00268e-08
6.90606e-11
2.32611e-09
4.94018e-07
0.000341862
0.0003185
1.0078e-05
2.02926e-09
8.21194e-09
9.54141e-09
1.05006e-07
1.29381e-10
1.17643e-08
2.99488e-06
0.000312661
0.000292967
2.22087e-05
6.1428e-09
2.01423e-08
3.78162e-08
3.17133e-07
5.1683e-10
3.9593e-09
1.0868e-05
0.000289557
0.000271455
3.60378e-05
9.50292e-09
4.17582e-08
3.90684e-08
1.66876e-07
1.31079e-09
5.6834e-09
1.87659e-05
0.00027089
0.00025336
3.98296e-05
2.91315e-08
7.14638e-08
1.4807e-07
6.08717e-07
6.79015e-09
3.81557e-09
2.30845e-05
0.000255232
0.000237446
4.87134e-05
2.33418e-08
1.85642e-07
9.27763e-08
2.44262e-07
3.44868e-08
8.31053e-09
2.47858e-05
0.000241248
0.000223924
5.65195e-05
4.94443e-08
1.67926e-07
9.93226e-08
2.4841e-07
1.05529e-07
1.23699e-08
2.64379e-05
0.000228804
0.000212229
6.32994e-05
8.86443e-08
7.54765e-07
2.42172e-07
3.96897e-07
2.90796e-07
2.47676e-09
2.89105e-05
0.000217525
0.00020178
6.96558e-05
2.09443e-07
3.03473e-07
3.1506e-07
4.85967e-07
1.97183e-07
7.91562e-08
3.01945e-05
0.000207876
0.000192562
7.4377e-05
5.56255e-07
3.02601e-07
7.92334e-07
5.72498e-07
3.26217e-07
1.3151e-07
3.09069e-05
0.000199052
0.000184031
6.51968e-05
7.45747e-07
3.89847e-07
5.23323e-07
4.84365e-07
5.49542e-07
2.18973e-07
3.10331e-05
0.000191704
0.000176324
8.08018e-05
1.8597e-06
5.28968e-07
1.18229e-06
8.80247e-07
8.16378e-07
3.95647e-07
3.09663e-05
0.000184558
0.000168594
8.1532e-05
3.95725e-06
6.47082e-07
8.37477e-07
7.83793e-07
9.7679e-07
7.40641e-07
3.02528e-05
0.000178842
0.00016082
8.68322e-05
7.81061e-06
1.09015e-06
1.03498e-06
1.03617e-06
1.31484e-06
1.22786e-06
3.02022e-05
0.000172624
0.000152977
9.45585e-05
1.37694e-05
2.12761e-06
1.28541e-06
1.29496e-06
1.65271e-06
1.42862e-06
2.9118e-05
0.000168208
0.000144777
0.000116505
2.05875e-05
3.15889e-06
1.86434e-06
1.86552e-06
2.1735e-06
2.14165e-06
2.74237e-05
0.000162487
0.000136157
0.000130421
3.77009e-05
6.35905e-06
2.5594e-06
2.4916e-06
2.61326e-06
2.56572e-06
2.53505e-05
0.000158562
0.000126725
0.000142872
5.98401e-05
1.13173e-05
4.30153e-06
3.18254e-06
3.54608e-06
3.96486e-06
2.22249e-05
0.000152094
0.00011601
0.000159619
9.04095e-05
2.23057e-05
7.03572e-06
4.66429e-06
4.4498e-06
4.33843e-06
2.28256e-05
0.000146678
0.000104364
0.00017576
0.000123336
3.94698e-05
1.45052e-05
8.50144e-06
6.69315e-06
7.09707e-06
1.75401e-05
0.000139754
9.57888e-05
0.00019666
0.000164982
7.51922e-05
2.93182e-05
1.38663e-05
1.0232e-05
8.36209e-06
1.73128e-05
0.000126605
0.00376374
6.60529e-05
5.33554e-05
5.33358e-05
5.33329e-05
5.33341e-05
5.33306e-05
5.33561e-05
6.60194e-05
0.00375931
0.00220996
2.18453e-06
4.03543e-07
4.00749e-07
3.98867e-07
3.96229e-07
3.99111e-07
4.04003e-07
2.17473e-06
0.00219177
0.00141584
5.01508e-07
7.66969e-09
6.33192e-09
5.75284e-09
6.19854e-09
6.01401e-09
7.61659e-09
4.88844e-07
0.00139334
0.000989364
2.94316e-07
1.04691e-10
4.78207e-11
1.0217e-11
4.72964e-11
1.16824e-11
8.95458e-11
3.05203e-07
0.000953046
0.000722606
7.32358e-07
2.53454e-12
8.53047e-15
4.41623e-15
3.90953e-15
1.5036e-16
2.13127e-12
6.01394e-07
0.000695545
0.000585357
1.12794e-06
3.21766e-10
1.25829e-19
3.20696e-17
1.07379e-20
9.46821e-21
1.17812e-09
7.9987e-07
0.000560452
0.000498612
1.02866e-06
7.08645e-10
1.19727e-16
4.30199e-15
1.47774e-17
1.93253e-17
4.17769e-09
7.67607e-07
0.000479251
0.000434986
9.37953e-07
5.40666e-10
1.2641e-15
2.94562e-16
6.29201e-17
1.20914e-16
2.41098e-08
7.91807e-07
0.000421679
0.000386212
1.34655e-06
8.74674e-10
1.40128e-14
3.13823e-13
2.54486e-17
2.50314e-14
8.75406e-08
1.21662e-06
0.000376833
0.000348104
4.03594e-06
4.03846e-09
6.19685e-16
2.55797e-13
7.2283e-17
1.00171e-12
2.18832e-07
4.595e-06
0.00034207
0.000317506
1.28056e-05
9.0374e-09
3.67617e-13
1.03597e-11
1.53459e-16
3.36178e-13
3.12905e-07
9.52873e-06
0.00031414
0.000292126
2.53355e-05
3.87868e-08
1.45205e-12
1.25027e-10
1.86323e-15
4.65084e-13
2.81674e-07
1.80898e-05
0.000291566
0.000270975
3.77004e-05
1.61062e-07
1.82542e-11
1.53054e-10
1.11502e-13
1.41691e-13
2.56977e-07
1.91389e-05
0.00027224
0.000252748
4.34821e-05
1.79797e-07
1.49195e-10
4.0439e-10
6.85918e-13
4.02345e-13
2.20791e-07
2.26243e-05
0.000255734
0.000236985
5.04525e-05
2.6597e-07
7.78794e-09
5.33946e-10
3.07864e-12
6.22197e-12
3.45093e-07
2.49107e-05
0.000241174
0.000223284
5.38223e-05
4.69045e-07
1.47058e-09
6.49028e-10
1.11626e-10
7.70903e-11
1.36552e-07
2.49521e-05
0.000228662
0.00021161
6.30425e-05
7.22874e-07
6.89592e-08
3.13484e-10
2.04365e-10
1.15139e-09
8.39199e-08
2.45648e-05
0.000217566
0.00020109
6.94721e-05
1.24503e-06
1.32658e-08
3.77762e-10
8.33475e-10
1.30695e-09
1.23803e-07
2.25955e-05
0.000208108
0.000191687
6.55071e-05
2.37418e-06
4.6419e-08
2.27098e-09
2.40861e-10
1.06428e-09
1.11997e-07
2.34868e-05
0.000199325
0.000183281
8.23877e-05
2.82639e-06
6.78947e-08
5.03591e-09
1.49333e-08
1.88686e-09
1.3892e-07
2.43598e-05
0.00019206
0.000175546
8.41053e-05
4.37697e-06
1.84662e-07
5.8e-09
3.5469e-09
4.0698e-09
1.69217e-07
2.44602e-05
0.000184858
0.000167937
8.32818e-05
6.17573e-06
2.45645e-07
2.60699e-08
2.47071e-09
6.27433e-09
2.35263e-07
2.46834e-05
0.000179213
0.000160294
8.82331e-05
9.13252e-06
5.5003e-07
3.37797e-08
8.77638e-09
1.11896e-08
2.67695e-07
2.50298e-05
0.00017299
0.000152569
9.4853e-05
1.39037e-05
1.05048e-06
8.74969e-08
1.06623e-08
1.23072e-08
2.88095e-07
2.41442e-05
0.000168474
0.000144595
0.000117265
2.01248e-05
2.00428e-06
1.6699e-07
3.43269e-08
3.54061e-08
2.93756e-07
2.31402e-05
0.000162809
0.000136391
0.0001289
3.22628e-05
3.81456e-06
4.8701e-07
6.16035e-08
2.58201e-08
2.76123e-07
1.92158e-05
0.000158435
0.000127647
0.000141185
5.84281e-05
7.69939e-06
8.99381e-07
1.52094e-07
1.33965e-07
2.39035e-07
1.82231e-05
0.000152163
0.000118179
0.000153229
8.35352e-05
1.82532e-05
2.73008e-06
3.90208e-07
7.4556e-08
2.65538e-07
1.1954e-05
0.000149221
0.000107876
0.000167439
0.000110914
3.20193e-05
6.20073e-06
1.25978e-06
4.33647e-07
3.03552e-07
9.41187e-06
0.000132512
9.71528e-05
0.000180434
0.000143838
5.24029e-05
1.47092e-05
3.49696e-06
7.77519e-07
3.92987e-07
4.99484e-06
0.00014062
0.00376343
6.60658e-05
5.33625e-05
5.33331e-05
5.3338e-05
5.33349e-05
5.33334e-05
5.33587e-05
6.60322e-05
0.00375901
0.00220826
2.18788e-06
4.11847e-07
3.97859e-07
3.94963e-07
3.97908e-07
3.9668e-07
4.04068e-07
2.17835e-06
0.00219025
0.00141567
4.76821e-07
9.18666e-09
6.17322e-09
6.29669e-09
5.97175e-09
6.2707e-09
7.39197e-09
4.71491e-07
0.00139269
0.000978323
3.72267e-07
2.07693e-10
1.72032e-11
7.77096e-11
1.16277e-11
8.80583e-11
3.64466e-11
3.64375e-07
0.000946329
0.00073347
4.20882e-07
1.73305e-12
1.02727e-18
2.7518e-13
9.92766e-18
8.94172e-14
1.82764e-12
4.05622e-07
0.000702117
0.000592131
5.48691e-07
3.07053e-11
8.23932e-20
1.01772e-22
2.58456e-24
1.00422e-18
4.10473e-11
4.98664e-07
0.000567688
0.000501169
6.39087e-07
7.57096e-10
4.66397e-20
1.14575e-24
5.31284e-25
2.27923e-20
1.76391e-09
5.68991e-07
0.000483643
0.000435657
6.78337e-07
7.64047e-10
1.5895e-19
6.88302e-25
9.001e-24
9.76517e-16
2.12328e-08
6.7902e-07
0.000423381
0.000385199
1.4211e-06
6.95357e-10
1.75138e-19
3.21047e-24
1.3565e-24
7.0438e-13
1.10045e-07
7.22691e-07
0.000377349
0.00034667
4.30882e-06
9.79172e-09
8.46381e-18
7.05584e-24
1.89921e-24
1.49808e-12
1.15917e-07
2.96863e-06
0.000341646
0.000316363
1.03376e-05
5.55902e-08
2.05486e-16
1.47809e-22
3.62836e-24
2.75518e-12
3.6142e-07
8.4749e-06
0.000314111
0.000290867
1.924e-05
6.14365e-08
4.97949e-15
6.28772e-21
1.12678e-23
1.67451e-11
4.6758e-07
1.6009e-05
0.000290656
0.000269714
3.30464e-05
2.46074e-07
1.43988e-12
6.91049e-22
8.11104e-23
2.44306e-12
5.83895e-07
2.21461e-05
0.000271229
0.00025164
3.78868e-05
3.16573e-07
3.89046e-12
2.95795e-20
1.51204e-22
6.67485e-12
6.40191e-07
2.3575e-05
0.000254548
0.000235851
4.76987e-05
4.57094e-07
6.01315e-11
3.28092e-19
6.35728e-22
2.2066e-11
7.57515e-07
2.36895e-05
0.000240001
0.000222306
5.47697e-05
1.00631e-06
1.04467e-09
1.61057e-18
7.20451e-22
2.12275e-10
3.22299e-07
2.23501e-05
0.000227522
0.000210937
6.66094e-05
1.94537e-06
1.36109e-08
3.4444e-17
3.77293e-21
3.86659e-11
3.08793e-07
2.19857e-05
0.000216437
0.000200423
7.67178e-05
2.53659e-06
4.06508e-08
3.60641e-14
7.1915e-21
2.55864e-11
2.10759e-07
2.14473e-05
0.000206995
0.000191404
7.48487e-05
3.69746e-06
1.71606e-07
5.27715e-11
4.72018e-19
1.04836e-10
2.38972e-07
2.14354e-05
0.000198253
0.000182789
7.82067e-05
4.92948e-06
5.77e-08
1.8378e-11
6.81806e-18
2.53705e-10
1.88117e-07
2.19703e-05
0.00019102
0.000175103
8.11976e-05
5.68382e-06
1.71214e-07
1.03753e-08
1.29891e-15
2.59553e-10
1.76537e-07
2.25788e-05
0.000183862
0.000167549
8.24096e-05
6.63741e-06
3.01062e-07
2.65977e-09
2.58653e-11
3.56734e-10
2.01071e-07
2.22454e-05
0.000178241
0.000159941
8.76275e-05
9.0601e-06
4.7176e-07
5.77302e-08
3.80429e-10
2.08094e-10
2.41857e-07
2.20435e-05
0.000171983
0.000152306
9.43266e-05
1.42801e-05
9.9208e-07
3.5491e-08
5.29504e-09
4.98281e-10
2.4679e-07
2.10191e-05
0.000167459
0.000144399
0.000116302
1.98771e-05
1.88368e-06
2.14415e-07
1.63263e-09
5.59166e-10
2.40558e-07
1.99991e-05
0.000161365
0.000136198
0.000127484
3.3573e-05
4.01492e-06
3.02561e-07
1.03353e-07
8.342e-09
2.13405e-07
1.89122e-05
0.000157442
0.000127454
0.000141077
5.70759e-05
8.44606e-06
1.07211e-06
5.15396e-08
1.72631e-09
2.24255e-07
1.60324e-05
0.000151062
0.000117721
0.000151556
8.27186e-05
1.5879e-05
2.26265e-06
5.96061e-07
1.62862e-07
1.62017e-07
1.36266e-05
0.000144745
0.000107175
0.000168478
0.000110539
3.26062e-05
6.15154e-06
7.71313e-07
8.4454e-08
1.85821e-07
9.36988e-06
0.000138628
9.52721e-05
0.000177436
0.000143206
5.01388e-05
1.38902e-05
3.57907e-06
9.86454e-07
2.25528e-07
7.3887e-06
0.000114581
0.00376342
6.60657e-05
5.33597e-05
5.33339e-05
5.33348e-05
5.33347e-05
5.33324e-05
5.336e-05
6.60323e-05
0.00375902
0.00220834
2.18796e-06
4.03644e-07
3.95862e-07
3.98162e-07
3.98488e-07
3.98189e-07
4.03396e-07
2.17857e-06
0.0021903
0.00141433
4.92575e-07
7.59109e-09
6.33689e-09
5.75727e-09
5.73594e-09
5.94752e-09
7.70903e-09
4.72523e-07
0.00139274
0.000983908
3.2852e-07
8.31913e-11
5.88128e-11
1.0353e-11
1.05212e-11
1.14165e-11
8.87613e-11
3.64065e-07
0.000947056
0.000726255
5.81797e-07
1.88668e-12
1.18318e-13
2.67756e-16
1.21037e-14
4.70875e-16
4.41489e-12
4.06455e-07
0.000702714
0.000586163
7.61315e-07
3.90605e-10
3.67365e-20
2.3827e-24
9.49441e-20
6.53622e-21
2.17791e-09
5.12028e-07
0.000568657
0.000499164
7.92039e-07
1.30424e-09
4.81553e-18
7.15562e-24
4.65735e-22
8.78536e-20
1.77154e-08
5.99812e-07
0.00048461
0.000434209
8.8161e-07
5.79778e-10
6.63646e-19
5.7708e-24
7.81107e-23
2.46768e-15
6.89634e-08
6.91472e-07
0.000424133
0.000384886
1.23744e-06
6.68934e-10
8.04983e-17
1.27218e-23
1.61256e-22
1.78438e-15
1.17634e-07
8.77372e-07
0.000377862
0.000346668
4.40122e-06
2.28896e-08
8.15139e-16
3.04906e-23
2.54365e-22
1.43213e-15
8.35843e-08
3.25608e-06
0.000342024
0.000315885
1.29193e-05
2.1782e-08
2.77125e-14
3.39899e-21
6.31083e-22
3.45131e-15
9.41098e-08
9.09028e-06
0.000314232
0.000290382
2.75693e-05
6.5198e-08
7.13076e-12
4.64239e-18
2.05815e-21
1.13275e-14
2.52122e-07
1.66142e-05
0.000291024
0.000269785
3.86392e-05
1.31007e-07
9.30664e-11
6.64534e-17
1.07389e-20
5.69309e-14
2.97594e-07
2.41567e-05
0.000271459
0.000251818
4.71948e-05
2.08587e-07
8.59199e-10
3.16598e-15
1.01283e-20
4.36609e-13
3.66783e-07
2.72295e-05
0.000254667
0.000236362
4.7555e-05
4.72625e-07
5.52398e-09
7.81703e-12
1.70158e-19
3.17817e-12
2.43218e-07
2.70797e-05
0.00024005
0.000222681
4.77853e-05
8.64876e-07
2.14308e-08
1.10298e-12
4.64459e-19
1.56342e-10
3.94186e-07
2.68325e-05
0.000227504
0.000211016
5.73701e-05
1.06742e-06
1.10709e-08
4.67643e-10
8.10173e-18
1.1335e-10
2.16828e-07
2.59643e-05
0.000216379
0.000200503
6.50052e-05
2.28686e-06
1.8332e-08
3.22687e-10
1.10697e-15
1.17924e-10
1.58725e-07
2.55458e-05
0.000206944
0.000191449
6.92179e-05
2.60034e-06
3.17007e-08
8.36649e-09
2.29915e-13
1.82542e-10
1.65509e-07
2.54269e-05
0.000198198
0.000182853
7.64519e-05
4.75328e-06
1.62841e-07
2.31058e-09
5.64084e-11
2.51471e-10
1.77581e-07
2.53087e-05
0.000190997
0.000175095
7.69544e-05
6.28569e-06
1.57252e-07
7.62276e-09
2.71483e-11
4.09232e-10
2.35841e-07
2.54703e-05
0.000183883
0.00016749
7.71161e-05
7.15763e-06
4.13024e-07
8.92028e-09
7.89113e-10
4.56052e-10
2.58715e-07
2.44709e-05
0.000178231
0.00015984
8.57553e-05
9.13289e-06
5.50576e-07
5.44324e-08
5.82343e-11
9.25418e-10
2.73841e-07
2.33801e-05
0.00017204
0.000152201
9.37625e-05
1.45146e-05
1.11202e-06
6.08084e-08
1.53901e-08
1.03177e-09
2.7361e-07
2.25727e-05
0.000167509
0.000144324
0.000117583
2.05052e-05
2.10976e-06
2.12093e-07
6.11018e-09
3.61467e-09
2.66313e-07
1.86662e-05
0.0001612
0.000136171
0.000128494
3.4064e-05
4.47649e-06
3.96634e-07
7.92116e-08
7.70803e-09
2.621e-07
1.99273e-05
0.000157823
0.000127456
0.000142082
5.82256e-05
7.87738e-06
1.10165e-06
8.07056e-08
9.01028e-08
2.49539e-07
1.89313e-05
0.000150138
0.000117748
0.000152485
8.23128e-05
1.83773e-05
2.552e-06
5.22698e-07
5.03748e-08
1.65098e-07
1.58007e-05
0.000148957
0.000107169
0.000169378
0.000111859
3.03956e-05
6.20516e-06
9.08992e-07
1.68125e-07
2.59063e-07
1.2201e-05
0.000133338
9.53087e-05
0.00017891
0.000145419
5.34564e-05
1.31772e-05
3.41525e-06
9.00423e-07
3.01085e-07
8.34226e-06
0.00013796
0.00376372
6.60531e-05
5.33566e-05
5.33301e-05
5.3333e-05
5.33336e-05
5.33298e-05
5.33567e-05
6.60197e-05
0.00375934
0.00220982
2.18501e-06
4.03696e-07
3.98335e-07
3.96173e-07
3.96043e-07
3.98366e-07
4.04377e-07
2.17532e-06
0.00219192
0.00141626
4.98481e-07
7.77673e-09
6.18602e-09
6.55727e-09
6.16242e-09
6.23339e-09
7.62826e-09
4.93998e-07
0.00139369
0.00098765
3.10251e-07
1.38184e-10
1.62862e-11
5.57417e-11
6.19567e-11
1.71843e-11
8.95846e-11
2.98754e-07
0.000955624
0.000727872
6.61668e-07
2.48607e-12
9.82949e-19
5.12065e-15
1.07485e-13
1.12487e-18
2.28452e-12
6.66645e-07
0.000696951
0.000585859
9.24615e-07
1.36465e-10
3.40448e-19
2.31032e-19
5.07557e-22
4.77552e-20
1.77208e-09
9.81068e-07
0.000560874
0.000500981
9.8076e-07
1.02109e-09
3.30974e-18
2.1003e-14
7.82467e-20
1.53809e-19
1.00775e-08
9.08345e-07
0.000479811
0.000435721
5.76166e-07
1.19324e-09
4.8575e-18
4.74074e-15
7.57371e-19
3.32492e-18
3.72973e-08
8.40541e-07
0.000421939
0.000387773
4.66615e-07
1.02588e-09
4.53291e-17
1.4128e-14
2.28359e-18
6.25793e-18
1.37578e-07
1.46507e-06
0.000377375
0.000348249
2.138e-07
1.18765e-09
7.2317e-16
4.21182e-12
2.92981e-18
1.5095e-16
3.17502e-07
5.23476e-06
0.000342674
0.000317002
1.55447e-06
7.90657e-09
9.86162e-16
2.42985e-12
1.02829e-17
2.12439e-16
5.72367e-07
1.33714e-05
0.000314688
0.000291274
8.93493e-06
5.54679e-08
4.77072e-15
5.35393e-12
1.29061e-17
2.29014e-14
1.03283e-06
2.10301e-05
0.000291977
0.000270829
1.59044e-05
5.13481e-08
1.65722e-13
8.20429e-12
1.28733e-16
3.37464e-13
6.78667e-07
2.54342e-05
0.000272495
0.000252812
2.31877e-05
9.38129e-08
6.89833e-13
2.53051e-11
3.08233e-16
1.87918e-12
7.71056e-07
2.79944e-05
0.000255894
0.000237272
3.10974e-05
9.36203e-08
6.76636e-12
2.1558e-11
6.01554e-16
3.11567e-12
5.25647e-07
2.96351e-05
0.000241157
0.000223504
4.38972e-05
1.73283e-07
5.45718e-10
6.58044e-11
1.54548e-15
1.47442e-11
7.91714e-07
3.14581e-05
0.000228523
0.00021161
5.35848e-05
4.6559e-07
2.66103e-09
1.83338e-10
5.30631e-15
3.27463e-10
4.26897e-07
3.25595e-05
0.000217371
0.000201456
6.81172e-05
7.29217e-07
1.82857e-08
3.87516e-09
6.17934e-14
1.87568e-09
3.08016e-07
3.26547e-05
0.00020797
0.000191966
7.54605e-05
1.09211e-06
8.81897e-08
6.39915e-12
2.21312e-13
2.0512e-09
3.06543e-07
3.20166e-05
0.000199295
0.000183656
8.31289e-05
2.38243e-06
3.58248e-08
4.40218e-10
7.34893e-12
1.24679e-08
2.82428e-07
3.16257e-05
0.000192139
0.000175578
7.32809e-05
3.8756e-06
9.9072e-08
5.87865e-09
6.01001e-11
7.04525e-09
3.48102e-07
3.12048e-05
0.00018497
0.000167876
7.82629e-05
6.66293e-06
2.22682e-07
6.97218e-09
1.21399e-09
8.01656e-09
3.88228e-07
3.15655e-05
0.000179449
0.000160169
8.90079e-05
9.68854e-06
5.82703e-07
6.14328e-08
9.57661e-09
9.83355e-09
4.40517e-07
3.06633e-05
0.000173225
0.000152467
9.7589e-05
1.58228e-05
1.29397e-06
7.28337e-08
4.06069e-09
1.30238e-08
4.18285e-07
3.02238e-05
0.000168883
0.00014461
0.000121581
2.22707e-05
2.28872e-06
3.46046e-07
4.76801e-08
2.19165e-08
4.40162e-07
2.80392e-05
0.000163036
0.000136483
0.000131764
3.73854e-05
4.37978e-06
4.06307e-07
5.24735e-08
3.23367e-08
4.35217e-07
2.61196e-05
0.000159097
0.000127782
0.000143121
6.14471e-05
8.9782e-06
1.47556e-06
2.76917e-07
1.13902e-07
3.6525e-07
2.21823e-05
0.000152675
0.000118377
0.000155405
8.6397e-05
2.00761e-05
2.79046e-06
3.70224e-07
1.04142e-07
3.52459e-07
1.84489e-05
0.000150779
0.000108092
0.000168664
0.000113817
3.10183e-05
6.86917e-06
1.51207e-06
4.92111e-07
3.98874e-07
1.3369e-05
0.000133881
9.74404e-05
0.000183162
0.000148207
5.65016e-05
1.46527e-05
3.25239e-06
8.84724e-07
4.6629e-07
8.7256e-06
0.000147407
0.00376512
6.61121e-05
5.33884e-05
5.3362e-05
5.33601e-05
5.3359e-05
5.33571e-05
5.33877e-05
6.60796e-05
0.00376079
0.00221357
2.21582e-06
4.22581e-07
4.12918e-07
4.03299e-07
4.02968e-07
4.04552e-07
4.19417e-07
2.20658e-06
0.00219582
0.0014224
4.94243e-07
6.50458e-09
7.93857e-09
7.57931e-09
7.68305e-09
7.72297e-09
6.37559e-09
4.90405e-07
0.00139899
0.000984931
3.98966e-07
9.6196e-10
5.59217e-10
8.99597e-11
1.15124e-10
1.4281e-10
1.69776e-10
3.85761e-07
0.000952951
0.000742055
4.46475e-07
2.62468e-10
9.56456e-12
2.52186e-12
8.23606e-12
8.17539e-12
4.14454e-11
4.3209e-07
0.000710265
0.000598362
5.62056e-07
2.60923e-10
1.9964e-10
1.22089e-09
1.52941e-09
1.14451e-09
1.02528e-10
5.20559e-07
0.000574994
0.000507353
6.28892e-07
7.78243e-10
9.57733e-09
7.82841e-09
5.81308e-09
2.9429e-09
1.75402e-10
5.83839e-07
0.000489803
0.000439592
7.98729e-07
6.69534e-10
7.51248e-08
8.20003e-09
5.74684e-08
2.97888e-08
1.7467e-10
7.28132e-07
0.000428901
0.000389725
8.65495e-07
1.15788e-09
1.14738e-07
1.30554e-08
1.75676e-07
1.09705e-07
6.49469e-10
7.24948e-07
0.000382351
0.000350337
2.86857e-06
1.48205e-09
2.8769e-07
1.31093e-07
3.63833e-07
4.82893e-07
2.11838e-10
2.83425e-06
0.000345836
0.00031942
1.0962e-05
1.64483e-09
6.02794e-07
3.52337e-07
7.88016e-07
3.99532e-07
5.59325e-10
1.02876e-05
0.000317822
0.000293773
2.28943e-05
8.79227e-09
1.28763e-06
6.01941e-07
1.71656e-06
7.29837e-07
9.47088e-10
2.10596e-05
0.000294063
0.000272017
3.47726e-05
1.67374e-08
6.30892e-07
6.55525e-07
1.03752e-06
6.33715e-07
2.36687e-09
2.80748e-05
0.000273772
0.000253507
4.47101e-05
5.72463e-08
6.01362e-07
1.21261e-06
1.65157e-06
2.69021e-06
3.14801e-09
3.64223e-05
0.000256198
0.000237827
5.32481e-05
1.16669e-07
9.47949e-07
4.28625e-07
1.74971e-06
1.00286e-06
2.00749e-09
4.15429e-05
0.000240984
0.000224212
5.69181e-05
7.43309e-08
2.86569e-07
7.29143e-07
6.07648e-07
8.31682e-07
2.32197e-09
4.39713e-05
0.000228114
0.000212617
6.78348e-05
2.61048e-07
3.32979e-07
5.37924e-07
8.49292e-07
1.40031e-06
2.97102e-09
4.33839e-05
0.000216902
0.00020209
7.78866e-05
4.1632e-07
3.9537e-07
7.39131e-07
5.92167e-07
1.04277e-06
8.36881e-09
4.14567e-05
0.000207457
0.000192973
7.61546e-05
6.55909e-07
4.67756e-07
7.79016e-07
7.03114e-07
1.37832e-06
1.57635e-08
3.86474e-05
0.000198809
0.000184232
8.0024e-05
1.32743e-06
4.99781e-07
7.23185e-07
6.32676e-07
1.55968e-06
8.04684e-08
3.67061e-05
0.000191627
0.000176416
8.33708e-05
3.41391e-06
9.10777e-07
8.1605e-07
8.22594e-07
1.2875e-06
2.7599e-07
3.40829e-05
0.0001845
0.000168776
8.666e-05
5.61636e-06
1.10588e-06
9.96761e-07
8.70166e-07
1.42525e-06
7.92184e-07
3.30934e-05
0.000178934
0.00016098
8.93531e-05
8.58401e-06
1.56514e-06
1.29928e-06
1.08323e-06
1.58286e-06
8.38274e-07
3.07545e-05
0.000172668
0.0001531
9.68084e-05
1.41281e-05
2.4934e-06
1.65737e-06
1.57142e-06
1.84467e-06
1.26027e-06
3.02662e-05
0.000168315
0.000144894
0.000119235
2.05671e-05
3.8703e-06
2.21513e-06
1.96509e-06
2.42824e-06
1.98909e-06
2.68148e-05
0.000162356
0.000136274
0.000131887
3.53557e-05
6.53324e-06
3.35643e-06
2.92904e-06
2.90519e-06
2.62202e-06
2.56826e-05
0.000158823
0.000126877
0.000145473
6.35939e-05
1.3223e-05
5.21614e-06
3.65346e-06
3.9394e-06
3.98185e-06
2.14838e-05
0.000151955
0.000116274
0.000162429
9.35565e-05
2.5175e-05
9.60481e-06
6.13324e-06
5.22933e-06
5.16677e-06
1.93489e-05
0.000147509
0.000104828
0.000179903
0.000130596
4.45642e-05
1.71311e-05
8.56916e-06
7.99733e-06
7.90451e-06
1.75438e-05
0.000139274
9.64326e-05
0.000201856
0.000171748
8.44974e-05
3.2949e-05
1.74848e-05
1.15189e-05
1.05548e-05
1.83319e-05
0.000122647
0.00377252
8.04594e-05
6.60819e-05
6.60231e-05
6.60358e-05
6.60357e-05
6.60233e-05
6.60831e-05
8.04297e-05
0.0037682
0.00221184
6.52943e-06
2.20611e-06
2.1766e-06
2.17982e-06
2.18002e-06
2.17741e-06
2.20898e-06
6.50682e-06
0.00219473
0.00140698
2.66934e-06
4.86147e-07
4.96446e-07
4.98632e-07
4.99814e-07
4.99419e-07
4.91576e-07
2.6424e-06
0.00137826
0.000966177
2.08151e-06
3.77979e-07
2.91081e-07
2.93139e-07
2.91332e-07
2.89876e-07
3.88947e-07
1.95951e-06
0.00092114
0.000730394
1.79934e-06
3.92574e-07
6.88118e-07
7.08205e-07
7.22216e-07
7.36182e-07
4.33153e-07
1.67592e-06
0.000679147
0.000583062
2.0211e-06
5.1173e-07
1.0419e-06
1.08298e-06
1.14007e-06
1.15511e-06