/*--------------------------------*- C++ -*----------------------------------*\
| =========                 |                                                 |
| \\      /  F ield         | OpenFOAM: The Open Source CFD Toolbox           |
|  \\    /   O peration     | Version:  4.1                                   |
|   \\  /    A nd           | Web:      www.OpenFOAM.org                      |
|    \\/     M anipulation  |                                                 |
\*---------------------------------------------------------------------------*/
FoamFile
{
    version     2.0;
    format      ascii;
    class       volScalarField;
    location    "1500";
    object      p;
}
// * * * * * * * * * * * * * * * * * * * * * * * * * * * * * * * * * * * * * //

dimensions      [0 2 -2 0 0 0 0];

internalField   nonuniform List<scalar> 
12000
(
0.0763398
0.0766202
0.0762858
0.0761654
0.0761277
0.0761262
0.076161
0.0762788
0.0766107
0.0763275
0.0757731
0.0757588
0.0756978
0.0757002
0.0756867
0.0756851
0.0756956
0.0756903
0.0757488
0.0757603
0.0756549
0.0754187
0.0754819
0.07553
0.0755317
0.0755298
0.0755246
0.0754734
0.0754073
0.0756401
0.0756282
0.0753647
0.0754485
0.0754759
0.0754762
0.075474
0.0754694
0.0754385
0.0753509
0.0756104
0.0755348
0.0753162
0.0754005
0.075403
0.0754008
0.0753981
0.0753948
0.0753879
0.0752988
0.0755129
0.0754152
0.0752418
0.0753225
0.0753121
0.075312
0.0753084
0.0753013
0.0753058
0.0752195
0.0753876
0.0753155
0.0751757
0.0752485
0.0752307
0.0752335
0.0752288
0.0752164
0.0752265
0.075146
0.0752797
0.0752403
0.075126
0.0751902
0.0751667
0.0751702
0.0751643
0.075148
0.0751618
0.0750881
0.0751945
0.07518
0.0750855
0.0751418
0.0751142
0.0751171
0.0751096
0.0750908
0.0751055
0.0750382
0.075122
0.0751301
0.0750504
0.0750987
0.0750679
0.0750694
0.07506
0.0750384
0.0750517
0.0749901
0.0750558
0.0750901
0.0750212
0.0750603
0.0750266
0.0750255
0.0750131
0.0749882
0.0749991
0.0749435
0.0749951
0.0750597
0.0749981
0.0750274
0.0749904
0.0749852
0.074969
0.0749405
0.0749482
0.074897
0.0749381
0.0750379
0.0749801
0.0750002
0.074959
0.0749484
0.0749273
0.0748945
0.0748977
0.0748485
0.0748815
0.0750244
0.0749679
0.0749786
0.0749321
0.0749143
0.0748869
0.0748484
0.0748457
0.0747964
0.0748222
0.0750204
0.0749628
0.074963
0.0749096
0.0748825
0.0748468
0.074801
0.0747904
0.0747388
0.0747577
0.0750275
0.0749665
0.0749544
0.0748918
0.0748528
0.0748064
0.0747507
0.0747298
0.0746738
0.074686
0.0750478
0.0749813
0.074954
0.0748791
0.074825
0.0747647
0.0746959
0.0746619
0.0745991
0.0746041
0.0750837
0.0750094
0.0749635
0.0748722
0.0747988
0.0747205
0.0746348
0.0745843
0.0745115
0.0745083
0.0751377
0.0750541
0.0749843
0.0748716
0.0747741
0.0746725
0.0745648
0.0744934
0.0744064
0.0743936
0.0752119
0.0751184
0.0750185
0.0748784
0.0747504
0.0746193
0.074483
0.0743846
0.0742779
0.0742532
0.0753072
0.0752051
0.0750681
0.0748935
0.0747278
0.0745589
0.0743852
0.0742513
0.0741173
0.0740773
0.0754216
0.0753151
0.0751349
0.0749182
0.0747063
0.0744894
0.0742664
0.0740849
0.0739128
0.0738518
0.0755487
0.0754455
0.0752203
0.074954
0.0746863
0.0744087
0.0741204
0.0738738
0.0736469
0.0735559
0.0756758
0.0755866
0.0753247
0.0750041
0.0746698
0.0743152
0.0739398
0.0736014
0.0732933
0.0731564
0.0757844
0.0757196
0.0754462
0.0750737
0.074661
0.0742083
0.0737153
0.073245
0.0728103
0.0725974
0.0758571
0.075823
0.0755826
0.0751726
0.0746677
0.0740891
0.0734356
0.0727703
0.0721286
0.0717785
0.0758933
0.0758882
0.0757289
0.0753073
0.0746993
0.073961
0.0730881
0.0721297
0.0711304
0.0704867
0.0759207
0.0759597
0.0758868
0.0754687
0.0747549
0.073822
0.0726485
0.0712396
0.0696103
0.0682555
0.0759282
0.0759983
0.0759598
0.0755671
0.0747897
0.0736609
0.0721097
0.070003
0.0672738
0.0636515
0.0758851
0.0759287
0.0758268
0.0754207
0.074636
0.0733351
0.0713296
0.0680672
0.063716
0.0529558
0.0766214
0.0766615
0.0763318
0.0762127
0.0761726
0.0761711
0.0762083
0.0763249
0.0766522
0.0766085
0.0757599
0.0757187
0.0756838
0.07569
0.0756746
0.075673
0.0756853
0.0756765
0.0757089
0.075747
0.0754202
0.0752099
0.075296
0.0753502
0.0753508
0.075349
0.0753449
0.0752877
0.0751988
0.0754052
0.0753668
0.0751131
0.075216
0.0752429
0.0752407
0.0752385
0.0752364
0.0752057
0.0750994
0.0753487
0.075319
0.0750958
0.075201
0.0751972
0.075193
0.0751903
0.075189
0.0751881
0.0750786
0.0752964
0.0752454
0.0750579
0.0751598
0.0751415
0.0751424
0.0751389
0.075131
0.0751435
0.0750358
0.0752168
0.0751802
0.0750207
0.0751125
0.0750861
0.0750925
0.075088
0.0750726
0.075092
0.0749928
0.0751428
0.0751315
0.0749976
0.0750769
0.0750434
0.0750521
0.0750464
0.0750259
0.07505
0.0749613
0.0750838
0.0750923
0.0749815
0.0750493
0.0750105
0.0750188
0.0750115
0.0749875
0.0750134
0.0749345
0.0750327
0.0750591
0.074966
0.0750231
0.0749812
0.0749879
0.0749786
0.0749514
0.0749762
0.0749052
0.0749831
0.0750324
0.074951
0.0749972
0.0749537
0.0749576
0.0749455
0.0749152
0.0749363
0.0748718
0.0749352
0.0750127
0.0749384
0.0749736
0.0749285
0.0749281
0.0749124
0.0748786
0.0748948
0.0748357
0.0748874
0.0749989
0.0749299
0.0749541
0.0749062
0.0748999
0.0748795
0.0748415
0.0748518
0.0747963
0.0748371
0.0749917
0.0749259
0.074939
0.0748871
0.074873
0.0748463
0.0748029
0.074806
0.0747518
0.0747827
0.0749927
0.0749274
0.0749288
0.0748711
0.0748471
0.0748121
0.0747617
0.0747557
0.0747002
0.0747226
0.0750035
0.0749362
0.0749244
0.0748583
0.0748218
0.0747762
0.0747164
0.0746992
0.0746398
0.0746546
0.0750264
0.0749545
0.074927
0.0748493
0.0747972
0.0747376
0.0746656
0.0746346
0.0745683
0.0745751
0.0750634
0.0749847
0.074938
0.0748446
0.0747728
0.0746953
0.0746072
0.0745591
0.0744825
0.0744804
0.0751168
0.0750294
0.0749588
0.0748447
0.0747483
0.0746478
0.0745384
0.0744687
0.0743778
0.0743653
0.0751886
0.0750911
0.074991
0.0748502
0.0747231
0.0745932
0.0744558
0.0743583
0.0742475
0.0742225
0.0752794
0.0751722
0.0750361
0.0748616
0.0746968
0.0745292
0.0743548
0.074221
0.0740826
0.0740418
0.0753879
0.0752738
0.0750957
0.0748796
0.0746685
0.074453
0.0742297
0.0740475
0.0738703
0.0738082
0.0755094
0.0753944
0.0751709
0.0749054
0.0746381
0.0743615
0.0740732
0.0738247
0.0735915
0.0734988
0.0756347
0.0755283
0.0752623
0.0749408
0.0746063
0.074252
0.0738762
0.0735343
0.0732172
0.0730779
0.0757489
0.0756634
0.0753697
0.0749901
0.074576
0.0741226
0.0736276
0.0731504
0.0727014
0.0724841
0.0758356
0.0757825
0.0754924
0.0750599
0.0745526
0.0739729
0.073314
0.0726354
0.0719676
0.0716077
0.075886
0.0758678
0.0756244
0.075156
0.0745442
0.0738058
0.0729215
0.0719368
0.070885
0.0702143
0.0759069
0.0759241
0.0757529
0.0752697
0.0745508
0.0736201
0.072427
0.0709708
0.0692312
0.0677974
0.0758904
0.0759259
0.0758038
0.0753362
0.0745458
0.0734129
0.0718244
0.0696327
0.0666843
0.0628081
0.0758545
0.0758277
0.0756319
0.0751729
0.0743774
0.0730772
0.0710403
0.0676247
0.0629739
0.0514064
0.0762882
0.076333
0.0760275
0.0759042
0.0758626
0.0758611
0.0758998
0.0760206
0.0763239
0.0762751
0.0757001
0.075685
0.0756568
0.0756583
0.0756429
0.0756414
0.0756536
0.0756495
0.0756754
0.0756871
0.0754847
0.0752975
0.0753839
0.0754371
0.0754383
0.0754365
0.0754318
0.0753757
0.0752864
0.0754697
0.0754526
0.0752177
0.0753184
0.0753444
0.0753419
0.0753397
0.0753378
0.0753081
0.0752041
0.0754347
0.0754057
0.0752031
0.0753082
0.0753022
0.0752973
0.0752945
0.0752939
0.0752954
0.0751861
0.0753836
0.0753288
0.0751625
0.0752685
0.075248
0.0752493
0.0752458
0.0752375
0.0752523
0.0751409
0.075301
0.0752562
0.075116
0.0752136
0.0751852
0.0751935
0.0751892
0.0751719
0.0751931
0.0750888
0.0752205
0.0751996
0.0750814
0.075166
0.0751303
0.0751419
0.0751363
0.0751131
0.0751392
0.0750458
0.075154
0.0751536
0.075055
0.075127
0.0750859
0.0750975
0.0750903
0.0750632
0.0750918
0.0750082
0.0750954
0.0751135
0.0750306
0.0750912
0.075047
0.0750571
0.0750479
0.0750173
0.0750452
0.0749696
0.075039
0.0750795
0.0750072
0.0750569
0.0750111
0.0750184
0.0750065
0.0749727
0.0749969
0.0749277
0.0749843
0.075053
0.0749866
0.0750254
0.0749783
0.0749813
0.0749659
0.0749284
0.0749471
0.0748833
0.0749303
0.075034
0.0749708
0.0749985
0.0749492
0.0749462
0.074926
0.0748844
0.0748965
0.0748368
0.0748748
0.0750224
0.0749606
0.0749769
0.0749241
0.0749131
0.0748866
0.0748401
0.0748442
0.0747864
0.0748158
0.0750192
0.0749567
0.074961
0.0749027
0.0748816
0.074847
0.0747937
0.0747885
0.0747302
0.0747515
0.0750259
0.0749605
0.0749515
0.074885
0.0748513
0.074806
0.074744
0.0747274
0.074666
0.0746794
0.0750446
0.0749738
0.0749491
0.0748713
0.0748217
0.0747627
0.074689
0.0746587
0.0745912
0.0745963
0.0750772
0.0749986
0.0749549
0.0748617
0.0747925
0.0747157
0.0746264
0.0745791
0.0745021
0.074498
0.0751256
0.0750371
0.07497
0.0748564
0.0747628
0.0746633
0.0745533
0.0744846
0.0743937
0.0743792
0.075191
0.0750914
0.0749954
0.0748556
0.0747318
0.0746033
0.0744657
0.0743697
0.0742593
0.0742322
0.0752738
0.0751632
0.0750324
0.0748595
0.0746985
0.0745328
0.0743588
0.0742272
0.0740893
0.0740461
0.0753724
0.0752534
0.0750817
0.0748681
0.0746615
0.0744485
0.0742262
0.0740469
0.0738702
0.0738054
0.0754825
0.0753605
0.0751438
0.0748816
0.0746197
0.0743466
0.0740597
0.073815
0.0735819
0.0734861
0.0755961
0.0754796
0.0752184
0.0749007
0.0745726
0.0742231
0.0738493
0.0735119
0.073194
0.0730505
0.0757028
0.0756017
0.0753046
0.0749273
0.0745215
0.074075
0.0735827
0.0731102
0.0726583
0.0724344
0.0757914
0.0757145
0.0754004
0.0749653
0.07447
0.0739012
0.0732463
0.0725709
0.0718947
0.0715232
0.0758529
0.0758055
0.075503
0.0750211
0.0744279
0.073708
0.0728298
0.0718443
0.0707699
0.0700751
0.075887
0.0758677
0.0756046
0.0750986
0.0744102
0.0735115
0.0723282
0.0708628
0.0690652
0.0675746
0.0758989
0.0758962
0.0756845
0.0752026
0.0744586
0.0733748
0.0718028
0.0695916
0.0665145
0.0624821
0.0759038
0.075883
0.0757088
0.0753262
0.0746225
0.0733854
0.071367
0.0679175
0.0630492
0.0510479
0.0761691
0.0762153
0.0759055
0.0757816
0.0757398
0.0757383
0.0757773
0.0758986
0.0762061
0.0761559
0.075704
0.0756926
0.0756597
0.0756618
0.0756466
0.075645
0.0756572
0.0756524
0.0756829
0.075691
0.0755344
0.0753532
0.0754387
0.0754945
0.0754959
0.0754941
0.0754893
0.0754304
0.0753422
0.0755195
0.0754814
0.0752465
0.0753462
0.0753744
0.0753718
0.0753696
0.075368
0.0753361
0.0752331
0.0754637
0.07541
0.0752017
0.0753044
0.0752987
0.0752931
0.0752904
0.0752906
0.0752918
0.0751848
0.0753883
0.0753211
0.0751471
0.0752507
0.0752292
0.0752297
0.0752263
0.0752188
0.0752347
0.0751256
0.0752936
0.0752423
0.0750932
0.0751887
0.0751586
0.0751665
0.0751622
0.0751453
0.0751681
0.0750657
0.0752067
0.0751814
0.0750527
0.075135
0.0750972
0.0751084
0.075103
0.0750799
0.0751082
0.0750169
0.0751357
0.0751329
0.0750226
0.0750921
0.0750486
0.07506
0.075053
0.0750261
0.0750571
0.0749762
0.0750744
0.075092
0.0749972
0.0750553
0.0750089
0.0750188
0.0750097
0.0749795
0.0750097
0.0749371
0.075017
0.0750579
0.0749748
0.0750222
0.0749742
0.0749812
0.0749694
0.0749359
0.0749627
0.0748967
0.0749614
0.0750316
0.0749562
0.0749928
0.0749436
0.0749461
0.0749307
0.0748937
0.0749153
0.0748546
0.0749068
0.0750133
0.0749425
0.0749682
0.074917
0.0749133
0.0748933
0.0748523
0.0748675
0.0748099
0.0748513
0.0750028
0.0749345
0.074949
0.0748946
0.0748828
0.0748565
0.0748106
0.0748179
0.0747614
0.074793
0.0750006
0.0749327
0.0749353
0.0748759
0.0748538
0.0748195
0.074767
0.0747648
0.074707
0.0747296
0.0750083
0.0749385
0.0749276
0.0748606
0.0748259
0.074781
0.0747198
0.074706
0.0746447
0.0746585
0.0750276
0.0749532
0.0749265
0.0748487
0.0747982
0.0747398
0.0746668
0.074639
0.0745714
0.0745763
0.0750603
0.0749788
0.074933
0.0748403
0.0747703
0.0746944
0.0746057
0.0745607
0.0744834
0.0744787
0.0751078
0.0750172
0.0749478
0.0748354
0.0747413
0.0746429
0.0745335
0.0744669
0.0743756
0.0743599
0.0751713
0.0750701
0.0749719
0.0748339
0.07471
0.0745828
0.074446
0.0743519
0.0742408
0.074212
0.0752509
0.0751392
0.0750062
0.0748357
0.0746751
0.074511
0.074338
0.074208
0.0740694
0.0740241
0.0753448
0.075225
0.0750512
0.0748404
0.0746349
0.0744239
0.0742028
0.0740251
0.0738472
0.0737798
0.0754496
0.0753263
0.0751072
0.074848
0.074588
0.0743173
0.074032
0.0737887
0.073554
0.0734549
0.0755587
0.0754393
0.0751743
0.0748588
0.0745336
0.0741872
0.0738153
0.0734791
0.0731587
0.073011
0.0756642
0.075557
0.0752522
0.0748753
0.0744735
0.0740312
0.0735413
0.0730694
0.0726132
0.0723834
0.0757575
0.0756701
0.0753408
0.0749033
0.0744137
0.0738512
0.0731993
0.0725232
0.0718391
0.071458
0.0758318
0.0757699
0.0754414
0.0749548
0.0743717
0.0736619
0.0727877
0.0717995
0.0707099
0.0699983
0.0758866
0.0758506
0.075555
0.0750493
0.0743802
0.0734979
0.0723206
0.0708497
0.0690251
0.0675032
0.075927
0.0759112
0.0756852
0.0752266
0.0745173
0.0734575
0.0718948
0.0696785
0.0665662
0.062495
0.0759566
0.0759459
0.0758314
0.0755268
0.0748742
0.0736588
0.0716482
0.0682013
0.0633096
0.0513405
0.0761329
0.0761767
0.0758654
0.0757413
0.0756994
0.0756979
0.075737
0.0758586
0.0761675
0.0761197
0.075692
0.0756787
0.0756459
0.0756482
0.0756329
0.0756313
0.0756436
0.0756387
0.0756691
0.075679
0.0755378
0.0753556
0.0754416
0.0754977
0.0754991
0.0754973
0.0754925
0.0754335
0.0753446
0.0755231
0.0754837
0.0752464
0.0753459
0.075374
0.0753712
0.075369
0.0753676
0.0753359
0.0752331
0.0754661
0.0754103
0.0752002
0.0753023
0.0752958
0.0752898
0.0752871
0.0752877
0.0752897
0.0751834
0.0753888
0.0753242
0.0751515
0.0752556
0.0752333
0.0752335
0.07523
0.0752229
0.0752396
0.0751301
0.075297
0.0752492
0.0751042
0.0752016
0.0751711
0.075179
0.0751747
0.0751577
0.075181
0.0750767
0.0752143
0.0751907
0.0750673
0.0751524
0.0751144
0.0751261
0.0751206
0.0750971
0.0751257
0.0750317
0.0751456
0.0751437
0.0750388
0.0751114
0.0750678
0.0750799
0.0750729
0.0750453
0.0750766
0.0749926
0.0750854
0.0751036
0.0750142
0.0750756
0.075029
0.0750398
0.0750308
0.0749996
0.0750301
0.0749542
0.0750286
0.0750699
0.0749921
0.0750428
0.0749946
0.0750027
0.074991
0.0749564
0.0749834
0.074914
0.0749733
0.0750435
0.0749732
0.075013
0.0749635
0.0749672
0.0749519
0.0749138
0.0749357
0.0748712
0.0749189
0.0750247
0.0749587
0.0749875
0.0749359
0.0749333
0.0749134
0.0748713
0.0748868
0.0748255
0.0748636
0.0750134
0.0749493
0.0749668
0.0749119
0.0749013
0.0748752
0.0748282
0.0748359
0.0747758
0.074805
0.0750104
0.0749461
0.0749513
0.0748914
0.0748707
0.0748366
0.074783
0.0747813
0.0747203
0.0747408
0.075017
0.07495
0.0749417
0.0748741
0.0748408
0.0747963
0.0747339
0.0747209
0.0746569
0.0746685
0.0750348
0.0749628
0.0749384
0.0748601
0.0748111
0.0747531
0.0746791
0.0746521
0.0745823
0.0745854
0.0750657
0.0749861
0.0749425
0.0748495
0.0747811
0.0747056
0.074616
0.0745715
0.0744927
0.0744872
0.0751111
0.0750218
0.0749547
0.0748421
0.0747496
0.0746517
0.0745416
0.0744756
0.0743831
0.0743671
0.075172
0.0750718
0.0749759
0.0748379
0.0747156
0.0745891
0.0744517
0.0743584
0.0742465
0.0742175
0.0752485
0.0751374
0.0750067
0.0748365
0.0746776
0.0745144
0.074341
0.074212
0.0740728
0.0740274
0.0753393
0.0752194
0.0750477
0.0748376
0.0746338
0.0744238
0.0742027
0.074026
0.0738479
0.0737805
0.075441
0.0753169
0.0750992
0.0748408
0.0745826
0.0743131
0.0740281
0.073786
0.0735512
0.0734521
0.0755481
0.0754267
0.0751616
0.0748468
0.0745234
0.0741785
0.073807
0.0734721
0.0731517
0.0730039
0.0756536
0.0755433
0.0752354
0.0748583
0.0744584
0.0740181
0.0735289
0.0730581
0.0726017
0.0723715
0.0757499
0.0756584
0.0753219
0.0748827
0.0743956
0.0738358
0.0731848
0.0725094
0.0718242
0.071442
0.0758307
0.0757642
0.0754243
0.074935
0.0743558
0.0736503
0.0727778
0.0717894
0.0706971
0.0699829
0.0758937
0.0758539
0.0755468
0.0750404
0.0743789
0.0735038
0.0723295
0.070858
0.0690285
0.0675017
0.0759418
0.0759236
0.0756967
0.0752483
0.0745539
0.0735063
0.0719505
0.0697358
0.0666192
0.0625354
0.0759771
0.0759684
0.0758815
0.0756109
0.0749846
0.073788
0.0717912
0.0683527
0.0634612
0.0514556
0.0761329
0.0761767
0.0758655
0.0757413
0.0756995
0.075698
0.075737
0.0758587
0.0761676
0.0761198
0.075692
0.0756788
0.0756459
0.0756482
0.075633
0.0756314
0.0756437
0.0756388
0.0756692
0.0756792
0.0755379
0.0753556
0.0754416
0.0754977
0.0754991
0.0754973
0.0754925
0.0754335
0.0753447
0.0755232
0.0754835
0.0752465
0.075346
0.0753741
0.0753712
0.0753691
0.0753677
0.075336
0.0752331
0.0754663
0.07541
0.0752003
0.0753024
0.0752959
0.0752898
0.0752871
0.0752878
0.0752897
0.0751835
0.075389
0.075324
0.0751515
0.0752556
0.0752333
0.0752335
0.0752301
0.0752229
0.0752396
0.0751301
0.0752972
0.0752489
0.0751042
0.0752017
0.0751711
0.075179
0.0751747
0.0751577
0.075181
0.0750767
0.0752144
0.0751906
0.0750673
0.0751524
0.0751144
0.0751261
0.0751206
0.075097
0.0751257
0.0750317
0.0751457
0.0751437
0.0750387
0.0751112
0.0750678
0.0750798
0.0750728
0.0750452
0.0750764
0.0749925
0.0750855
0.0751038
0.0750141
0.0750753
0.0750289
0.0750397
0.0750307
0.0749995
0.0750299
0.074954
0.0750288
0.0750702
0.0749919
0.0750425
0.0749945
0.0750026
0.0749909
0.0749563
0.0749833
0.0749138
0.0749732
0.0750437
0.0749731
0.0750128
0.0749634
0.0749671
0.0749518
0.0749137
0.0749358
0.0748711
0.0749185
0.0750247
0.0749586
0.0749873
0.0749358
0.0749333
0.0749133
0.0748713
0.074887
0.0748255
0.0748632
0.0750134
0.0749492
0.0749666
0.0749118
0.0749012
0.0748752
0.0748281
0.074836
0.0747758
0.0748047
0.0750105
0.0749458
0.0749511
0.0748912
0.0748705
0.0748365
0.0747829
0.0747813
0.0747203
0.0747407
0.075017
0.0749498
0.0749414
0.074874
0.0748406
0.0747961
0.0747338
0.0747208
0.0746568
0.0746686
0.0750348
0.0749625
0.0749382
0.07486
0.0748109
0.0747529
0.0746789
0.0746519
0.0745821
0.0745855
0.0750655
0.0749858
0.0749422
0.0748493
0.0747808
0.0747054
0.0746158
0.0745715
0.0744926
0.074487
0.0751108
0.0750215
0.0749544
0.0748419
0.0747494
0.0746515
0.0745414
0.0744755
0.074383
0.0743668
0.0751715
0.0750714
0.0749755
0.0748376
0.0747153
0.0745888
0.0744515
0.0743582
0.0742463
0.0742172
0.0752479
0.0751369
0.0750063
0.0748362
0.0746772
0.074514
0.0743407
0.0742118
0.0740725
0.0740271
0.0753384
0.0752188
0.0750473
0.0748371
0.0746333
0.0744234
0.0742023
0.0740257
0.0738475
0.0737801
0.0754401
0.0753161
0.0750986
0.0748402
0.074582
0.0743126
0.0740276
0.0737855
0.0735506
0.0734516
0.075547
0.0754258
0.0751609
0.0748461
0.0745227
0.0741778
0.0738064
0.0734714
0.0731509
0.0730033
0.0756524
0.0755423
0.0752345
0.0748575
0.0744576
0.0740172
0.073528
0.0730571
0.0726005
0.0723706
0.0757488
0.0756573
0.0753209
0.0748817
0.0743945
0.0738345
0.0731835
0.072508
0.0718225
0.0714406
0.0758296
0.0757632
0.0754233
0.0749339
0.0743544
0.0736486
0.0727758
0.0717872
0.0706945
0.0699806
0.0758929
0.0758531
0.0755458
0.075039
0.0743769
0.0735011
0.0723263
0.0708543
0.0690243
0.0674977
0.0759414
0.0759232
0.0756957
0.0752463
0.0745509
0.0735021
0.0719452
0.0697295
0.066612
0.0625287
0.0759772
0.0759685
0.0758801
0.0756077
0.0749797
0.0737812
0.0717822
0.0683419
0.0634487
0.051444
0.0761692
0.0762154
0.0759057
0.0757818
0.07574
0.0757385
0.0757775
0.0758989
0.0762064
0.0761563
0.0757041
0.0756927
0.0756598
0.075662
0.0756468
0.0756452
0.0756575
0.0756527
0.0756832
0.0756914
0.0755345
0.0753533
0.0754388
0.0754947
0.0754961
0.0754943
0.0754895
0.0754307
0.0753425
0.07552
0.0754815
0.0752465
0.0753462
0.0753746
0.0753721
0.0753699
0.0753682
0.0753363
0.0752333
0.0754641
0.0754099
0.0752017
0.0753044
0.0752988
0.0752933
0.0752906
0.0752908
0.0752919
0.075185
0.0753887
0.0753207
0.0751471
0.0752509
0.0752293
0.0752299
0.0752265
0.0752189
0.0752348
0.0751257
0.075294
0.0752413
0.0750935
0.075189
0.0751587
0.0751666
0.0751622
0.0751452
0.0751681
0.0750657
0.0752073
0.0751804
0.0750529
0.0751353
0.0750972
0.0751084
0.0751028
0.0750798
0.0751082
0.075017
0.0751362
0.0751325
0.0750227
0.0750921
0.0750485
0.0750598
0.0750527
0.0750259
0.0750569
0.074976
0.0750749
0.0750922
0.0749972
0.075055
0.0750087
0.0750185
0.0750094
0.0749792
0.0750093
0.0749366
0.0750173
0.0750586
0.0749747
0.0750216
0.0749739
0.074981
0.0749692
0.0749357
0.0749623
0.074896
0.0749612
0.0750324
0.0749562
0.0749924
0.0749433
0.0749459
0.0749306
0.0748936
0.0749153
0.0748539
0.0749058
0.0750138
0.0749425
0.0749679
0.0749169
0.0749132
0.0748931
0.0748522
0.0748676
0.0748093
0.0748501
0.075003
0.0749343
0.0749486
0.0748944
0.0748826
0.0748564
0.0748105
0.0748179
0.0747608
0.074792
0.0750007
0.0749324
0.0749349
0.0748756
0.0748535
0.0748193
0.0747668
0.0747647
0.0747065
0.0747288
0.0750081
0.0749381
0.0749272
0.0748603
0.0748255
0.0747807
0.0747195
0.0747058
0.0746441
0.0746578
0.0750272
0.0749528
0.0749262
0.0748484
0.0747978
0.0747395
0.0746665
0.0746387
0.0745708
0.0745756
0.0750596
0.0749783
0.0749325
0.0748399
0.0747699
0.074694
0.0746054
0.0745603
0.0744828
0.0744781
0.0751068
0.0750165
0.0749472
0.0748349
0.0747408
0.0746424
0.074533
0.0744663
0.0743749
0.0743593
0.0751699
0.0750693
0.0749712
0.0748332
0.0747094
0.0745822
0.0744453
0.0743511
0.07424
0.0742114
0.0752491
0.0751381
0.0750052
0.0748348
0.0746743
0.0745103
0.0743372
0.0742071
0.0740684
0.0740233
0.0753427
0.0752235
0.0750499
0.0748393
0.0746339
0.0744229
0.0742018
0.0740239
0.073846
0.0737789
0.0754472
0.0753244
0.0751055
0.0748465
0.0745867
0.074316
0.0740307
0.0737872
0.0735525
0.0734537
0.0755559
0.0754369
0.0751722
0.074857
0.0745319
0.0741855
0.0738136
0.0734771
0.0731566
0.0730093
0.0756611
0.0755541
0.0752497
0.0748731
0.0744713
0.0740289
0.0735389
0.0730666
0.0726102
0.0723809
0.0757542
0.0756669
0.075338
0.0749006
0.0744109
0.073848
0.0731958
0.0725192
0.0718347
0.0714542
0.0758287
0.0757667
0.0754384
0.0749516
0.0743678
0.0736572
0.0727824
0.0717933
0.0707031
0.0699921
0.0758841
0.0758479
0.0755517
0.0750451
0.0743746
0.0734907
0.0723121
0.0708397
0.0690141
0.0674925
0.0759256
0.0759095
0.0756816
0.0752205
0.0745085
0.0734458
0.0718803
0.0696614
0.066547
0.0624764
0.0759565
0.0759451
0.0758263
0.0755169
0.0748599
0.0736398
0.0716242
0.0681727
0.0632765
0.0513089
0.0762884
0.0763333
0.0760278
0.0759045
0.075863
0.0758615
0.0759003
0.0760211
0.0763244
0.0762757
0.0757003
0.0756853
0.075657
0.0756586
0.0756433
0.0756417
0.0756541
0.07565
0.0756759
0.0756877
0.0754849
0.0752976
0.0753842
0.0754374
0.0754386
0.0754369
0.0754322
0.075376
0.0752869
0.0754705
0.0754528
0.0752177
0.0753183
0.0753446
0.0753424
0.0753402
0.0753382
0.0753083
0.0752044
0.0754355
0.0754056
0.075203
0.0753081
0.0753024
0.0752977
0.075295
0.0752942
0.0752955
0.0751861
0.0753845
0.0753284
0.0751625
0.0752685
0.0752481
0.0752494
0.0752459
0.0752376
0.0752524
0.075141
0.0753017
0.0752554
0.0751165
0.0752139
0.0751852
0.0751934
0.0751889
0.0751716
0.0751929
0.0750885
0.0752214
0.075199
0.0750817
0.0751664
0.0751303
0.0751414
0.0751357
0.0751126
0.0751391
0.0750456
0.0751551
0.0751532
0.075055
0.0751272
0.0750857
0.0750968
0.0750897
0.0750628
0.0750918
0.0750082
0.0750967
0.0751135
0.0750302
0.0750911
0.0750466
0.0750564
0.0750473
0.0750171
0.0750451
0.0749694
0.0750401
0.0750801
0.0750065
0.0750564
0.0750106
0.0750178
0.0750061
0.0749724
0.0749969
0.0749276
0.0749843
0.0750537
0.0749864
0.075025
0.0749778
0.0749807
0.0749653
0.0749281
0.0749477
0.0748837
0.0749289
0.0750345
0.0749705
0.074998
0.0749488
0.0749455
0.0749253
0.0748841
0.0748975
0.0748373
0.0748726
0.0750227
0.0749597
0.0749761
0.0749236
0.0749123
0.0748859
0.0748397
0.0748451
0.0747868
0.0748137
0.075019
0.0749556
0.0749602
0.0749021
0.0748807
0.0748462
0.0747934
0.0747892
0.0747304
0.0747498
0.0750252
0.0749595
0.0749508
0.0748844
0.0748503
0.0748052
0.0747436
0.0747279
0.074666
0.074678
0.0750434
0.0749728
0.0749484
0.0748707
0.0748207
0.0747619
0.0746886
0.0746589
0.0745911
0.0745951
0.0750756
0.0749975
0.0749541
0.074861
0.0747914
0.0747149
0.0746259
0.0745791
0.0745018
0.074497
0.0751237
0.0750358
0.074969
0.0748555
0.0747617
0.0746625
0.0745526
0.0744844
0.0743934
0.0743782
0.0751887
0.0750899
0.0749943
0.0748546
0.0747306
0.0746023
0.0744649
0.0743694
0.0742588
0.0742311
0.0752712
0.0751615
0.0750309
0.0748582
0.0746971
0.0745317
0.0743578
0.0742266
0.0740886
0.0740449
0.0753692
0.0752512
0.0750799
0.0748665
0.0746598
0.0744471
0.074225
0.074046
0.0738691
0.0738039
0.0754786
0.0753577
0.0751415
0.0748795
0.0746176
0.0743448
0.0740581
0.0738136
0.0735804
0.0734842
0.0755916
0.0754761
0.0752156
0.0748981
0.0745701
0.0742208
0.0738471
0.0735099
0.0731918
0.0730479
0.0756978
0.0755975
0.0753012
0.0749242
0.0745183
0.0740719
0.0735796
0.073107
0.0726548
0.0724306
0.075786
0.0757096
0.0753965
0.0749617
0.0744659
0.0738968
0.0732416
0.072566
0.0718893
0.0715174
0.0758477
0.0758005
0.0754988
0.0750166
0.0744223
0.0737014
0.0728224
0.0718364
0.0707612
0.0700658
0.0758825
0.0758631
0.0755999
0.0750926
0.0744021
0.0735012
0.0723162
0.0708495
0.0690506
0.0675588
0.0758954
0.0758921
0.0756785
0.0751936
0.0744457
0.0733578
0.0717823
0.0695681
0.0664884
0.0624531
0.0759014
0.0758787
0.075699
0.0753105
0.0746008
0.0733573
0.0713328
0.067878
0.0630027
0.0509912
0.0766215
0.076662
0.0763324
0.0762133
0.0761732
0.0761718
0.0762091
0.0763258
0.0766532
0.0766091
0.07576
0.0757191
0.0756843
0.0756904
0.075675
0.0756735
0.0756859
0.0756772
0.0757098
0.0757475
0.0754203
0.0752103
0.0752964
0.0753506
0.0753512
0.0753495
0.0753455
0.0752883
0.0751997
0.0754059
0.0753669
0.0751133
0.0752161
0.0752433
0.0752413
0.0752391
0.075237
0.0752062
0.0751001
0.0753497
0.0753186
0.075096
0.0752011
0.0751974
0.0751933
0.0751906
0.0751894
0.0751883
0.075079
0.075298
0.0752446
0.0750579
0.0751599
0.0751417
0.0751425
0.0751391
0.0751312
0.0751437
0.0750362
0.0752183
0.0751781
0.0750214
0.0751132
0.0750863
0.0750925
0.0750881
0.0750727
0.0750918
0.0749928
0.0751449
0.0751296
0.0749981
0.0750775
0.0750436
0.0750521
0.0750463
0.0750258
0.07505
0.0749614
0.0750861
0.075092
0.0749819
0.0750494
0.0750105
0.0750187
0.0750114
0.0749875
0.0750139
0.0749344
0.0750341
0.0750603
0.0749661
0.0750226
0.0749811
0.0749877
0.0749784
0.0749512
0.0749765
0.0749046
0.0749843
0.0750345
0.0749511
0.0749964
0.0749535
0.0749573
0.0749453
0.0749147
0.0749365
0.0748712
0.0749353
0.0750138
0.0749389
0.0749734
0.0749283
0.0749278
0.0749121
0.0748779
0.0748951
0.074835
0.0748858
0.0749997
0.0749301
0.0749538
0.074906
0.0748996
0.0748791
0.0748406
0.0748521
0.0747953
0.0748344
0.0749929
0.0749253
0.0749381
0.0748867
0.0748725
0.0748458
0.074802
0.0748061
0.0747506
0.0747796
0.0749935
0.0749264
0.0749276
0.0748704
0.0748464
0.0748115
0.0747607
0.0747556
0.074699
0.0747197
0.0750034
0.0749349
0.0749232
0.0748576
0.074821
0.0747754
0.0747154
0.074699
0.0746385
0.074652
0.0750253
0.0749528
0.0749257
0.0748484
0.0747961
0.0747367
0.0746646
0.0746343
0.0745671
0.074573
0.0750616
0.0749827
0.0749365
0.0748435
0.0747714
0.0746943
0.074606
0.0745587
0.0744814
0.0744785
0.0751145
0.0750271
0.0749571
0.0748434
0.0747467
0.0746466
0.0745371
0.0744681
0.0743766
0.0743635
0.0751857
0.0750885
0.0749891
0.0748486
0.0747213
0.0745917
0.0744543
0.0743575
0.0742462
0.0742207
0.075276
0.0751691
0.0750339
0.0748597
0.0746946
0.0745274
0.0743531
0.0742201
0.0740812
0.0740398
0.0753838
0.0752702
0.075093
0.0748773
0.074666
0.0744509
0.0742278
0.0740462
0.0738685
0.0738058
0.0755045
0.0753902
0.0751676
0.0749026
0.0746352
0.074359
0.0740708
0.073823
0.0735892
0.073496
0.0756289
0.0755234
0.0752585
0.0749376
0.0746029
0.0742489
0.0738732
0.0735319
0.0732142
0.0730743
0.0757423
0.0756578
0.0753654
0.0749864
0.074572
0.0741187
0.0736236
0.0731469
0.0726973
0.0724793
0.0758287
0.0757764
0.0754879
0.0750558
0.0745479
0.0739677
0.0733086
0.0726302
0.0719616
0.0716011
0.0758796
0.0758618
0.0756199
0.0751515
0.0745384
0.0737989
0.0729138
0.0719289
0.0708762
0.0702045
0.0759019
0.0759192
0.075749
0.0752646
0.0745431
0.0736102
0.0724154
0.0709584
0.0692176
0.0677824
0.0758859
0.0759212
0.0757983
0.0753284
0.0745345
0.0733977
0.0718057
0.0696117
0.0666623
0.0627814
0.0758503
0.0758211
0.0756204
0.075157
0.0743559
0.0730494
0.0710073
0.067588
0.0629375
0.0513584
0.0763394
0.0766196
0.0762851
0.0761646
0.0761269
0.0761255
0.0761604
0.0762784
0.0766105
0.0763267
0.0757728
0.0757584
0.0756974
0.0756999
0.0756863
0.0756848
0.0756954
0.0756903
0.0757488
0.0757601
0.0756545
0.0754183
0.0754815
0.0755296
0.0755313
0.0755296
0.0755245
0.0754734
0.0754074
0.07564
0.0756279
0.0753646
0.0754488
0.0754755
0.0754751
0.0754729
0.0754692
0.0754391
0.0753517
0.0756108
0.0755345
0.0753161
0.075401
0.075403
0.0753999
0.0753972
0.075395
0.0753888
0.0753004
0.0755141
0.0754146
0.0752416
0.075323
0.0753124
0.0753117
0.0753084
0.0753021
0.0753071
0.0752214
0.0753893
0.0753143
0.0751744
0.0752488
0.0752312
0.0752337
0.0752294
0.0752179
0.0752282
0.0751488
0.0752821
0.0752392
0.0751248
0.0751902
0.0751672
0.075171
0.0751654
0.0751498
0.0751631
0.0750907
0.0751971
0.07518
0.0750856
0.0751419
0.0751146
0.0751179
0.0751105
0.0750918
0.0751062
0.0750397
0.0751241
0.0751311
0.075052
0.0750991
0.0750684
0.07507
0.0750603
0.0750383
0.0750522
0.0749913
0.0750577
0.0750917
0.0750235
0.0750607
0.075027
0.0750258
0.075013
0.0749876
0.0749995
0.0749438
0.0749961
0.075061
0.0749993
0.0750277
0.0749906
0.0749854
0.0749689
0.0749399
0.074948
0.0748958
0.0749377
0.0750389
0.0749809
0.0750004
0.0749593
0.0749486
0.0749275
0.0748939
0.0748969
0.0748461
0.0748798
0.0750254
0.0749691
0.0749788
0.0749323
0.0749145
0.0748871
0.0748477
0.0748444
0.0747934
0.0748198
0.0750209
0.0749638
0.074963
0.0749098
0.0748828
0.074847
0.0748001
0.0747887
0.0747359
0.0747553
0.0750271
0.0749666
0.0749539
0.0748918
0.0748529
0.0748064
0.0747497
0.0747281
0.0746713
0.0746838
0.0750465
0.0749803
0.074953
0.0748786
0.0748247
0.0747643
0.0746948
0.0746604
0.074597
0.0746022
0.0750817
0.0750077
0.0749619
0.0748711
0.074798
0.0747197
0.0746335
0.0745829
0.0745097
0.0745067
0.0751352
0.0750517
0.0749823
0.07487
0.0747728
0.0746713
0.0745634
0.074492
0.0744048
0.0743922
0.0752089
0.0751154
0.075016
0.0748763
0.0747488
0.0746177
0.0744812
0.0743829
0.0742761
0.0742517
0.0753035
0.0752015
0.075065
0.074891
0.0747258
0.0745569
0.074383
0.0742492
0.0741153
0.0740756
0.0754172
0.0753107
0.0751312
0.0749151
0.0747038
0.0744869
0.0742637
0.0740823
0.0739103
0.0738498
0.0755433
0.0754403
0.075216
0.0749503
0.0746833
0.0744057
0.0741173
0.0738706
0.0736438
0.0735533
0.0756693
0.0755803
0.0753196
0.0749997
0.0746662
0.0743117
0.073936
0.0735975
0.0732894
0.073153
0.0757771
0.0757124
0.0754405
0.0750689
0.0746566