/*--------------------------------*- C++ -*----------------------------------*\
| =========                 |                                                 |
| \\      /  F ield         | OpenFOAM: The Open Source CFD Toolbox           |
|  \\    /   O peration     | Version:  4.1                                   |
|   \\  /    A nd           | Web:      www.OpenFOAM.org                      |
|    \\/     M anipulation  |                                                 |
\*---------------------------------------------------------------------------*/
FoamFile
{
    version     2.0;
    format      ascii;
    class       surfaceScalarField;
    location    "1500";
    object      phi;
}
// * * * * * * * * * * * * * * * * * * * * * * * * * * * * * * * * * * * * * //

dimensions      [0 3 -1 0 0 0 0];

internalField   nonuniform List<scalar> 
33700
(
4.94529e-05
0.000901187
4.93858e-05
2.30211e-05
0.000971765
5.46951e-05
8.38762e-06
0.000957846
5.68159e-05
3.12859e-06
0.000948643
5.66443e-05
8.36968e-08
0.000946191
5.6882e-05
-2.96716e-06
0.000946198
5.68819e-05
-8.2406e-06
0.00094866
5.66439e-05
-2.28884e-05
0.00095786
5.68136e-05
-4.93273e-05
0.000971787
5.46747e-05
0.00090127
4.94148e-05
3.11846e-05
0.000838997
3.10627e-05
2.34534e-05
0.000942116
3.74409e-05
1.34101e-05
0.000928626
3.93263e-05
6.13672e-06
0.00091698
3.89991e-05
2.05986e-07
0.000912758
3.94265e-05
-5.73661e-06
0.000912778
3.94284e-05
-1.30313e-05
0.000917024
3.89942e-05
-2.30592e-05
0.000928661
3.92848e-05
-3.07673e-05
0.000942173
3.73692e-05
0.000839391
3.11322e-05
1.61524e-05
0.000806986
1.59189e-05
1.66362e-05
0.000920707
2.09889e-05
1.18109e-05
0.000911539
2.19768e-05
6.09381e-06
0.000900949
2.1813e-05
3.59242e-07
0.000896118
2.24396e-05
-5.39973e-06
0.000896157
2.24451e-05
-1.11625e-05
0.000901028
2.1823e-05
-1.60066e-05
0.000911598
2.19642e-05
-1.5557e-05
0.00092085
2.09213e-05
0.000807822
1.6034e-05
8.8192e-06
0.000789826
8.3905e-06
1.23924e-05
0.000905958
1.12258e-05
9.80134e-06
0.000902816
1.13655e-05
5.01861e-06
0.000893828
1.19533e-05
5.4237e-07
0.000888084
1.25597e-05
-3.99392e-06
0.000888175
1.25693e-05
-8.89189e-06
0.000894004
1.19702e-05
-1.13747e-05
0.0009028
1.13275e-05
-8.00008e-06
0.000906328
1.11864e-05
0.000791367
8.47548e-06
5.43366e-06
0.000779659
4.76605e-06
9.89079e-06
0.000894946
6.58797e-06
8.50374e-06
0.000898613
5.62063e-06
4.4183e-06
0.000891123
6.81859e-06
8.09105e-07
0.000884191
7.53002e-06
-2.87999e-06
0.000884346
7.54584e-06
-7.1908e-06
0.000891477
6.86756e-06
-8.44816e-06
0.000898473
5.61512e-06
-4.39848e-06
0.000895663
6.64582e-06
0.000782234
4.75399e-06
4.18776e-06
0.00077216
3.33248e-06
7.89106e-06
0.000886151
5.10682e-06
7.4928e-06
0.000895763
3.26026e-06
4.42869e-06
0.000889349
4.84827e-06
1.16831e-06
0.000881978
5.48339e-06
-2.17102e-06
0.000882221
5.47558e-06
-5.47603e-06
0.000889981
4.81473e-06
-6.14478e-06
0.000895899
3.26208e-06
-2.81925e-06
0.000887391
4.9712e-06
0.000776277
3.15618e-06
3.90926e-06
0.000765427
2.83312e-06
6.58441e-06
0.000878779
4.70095e-06
6.81776e-06
0.000893176
2.35264e-06
4.48929e-06
0.000887327
4.34751e-06
1.63756e-06
0.000880138
4.68828e-06
-1.31034e-06
0.000880523
4.64387e-06
-3.87931e-06
0.000888455
4.09866e-06
-3.95807e-06
0.000893905
2.08425e-06
-2.36828e-06
0.000881039
4.78116e-06
0.000771074
2.85293e-06
4.31277e-06
0.000758182
2.93407e-06
5.38445e-06
0.000872837
4.86561e-06
6.45998e-06
0.000890486
1.60496e-06
4.65845e-06
0.000884898
4.21916e-06
2.27483e-06
0.000878211
4.2987e-06
-1.67313e-07
0.000878746
4.20761e-06
-2.701e-06
0.000887056
3.92763e-06
-2.29362e-06
0.000892241
1.25972e-06
-2.17025e-06
0.000876312
4.61821e-06
0.000765926
2.99209e-06
5.00868e-06
0.000749962
3.20548e-06
4.85066e-06
0.000867993
4.98849e-06
6.52888e-06
0.000887758
1.03385e-06
5.05597e-06
0.000882133
4.22044e-06
3.03079e-06
0.000876159
4.05914e-06
8.69076e-07
0.000876916
3.97428e-06
-1.56033e-06
0.000885554
3.91519e-06
-9.48523e-07
0.000890723
9.03686e-07
-1.88449e-06
0.000872469
4.78448e-06
0.000760883
3.17086e-06
5.41624e-06
0.000741525
3.00746e-06
5.55599e-06
0.000862756
5.07779e-06
7.0949e-06
0.000885022
1.1763e-06
5.67753e-06
0.000879198
4.3306e-06
3.90059e-06
0.000874043
3.87011e-06
1.86234e-06
0.000875094
3.83504e-06
-3.47126e-07
0.000883591
4.15173e-06
-2.11914e-07
0.000889537
1.03854e-06
-1.27848e-06
0.000868645
4.88866e-06
0.000756424
3.18979e-06
5.84991e-06
0.000733022
2.63318e-06
6.70643e-06
0.000856627
5.24821e-06
8.02556e-06
0.000882115
1.56411e-06
6.60865e-06
0.000876091
4.49943e-06
5.05693e-06
0.000871833
3.73554e-06
3.19228e-06
0.00087324
3.68939e-06
9.1766e-07
0.000881413
4.42519e-06
2.66838e-07
0.000888651
1.51904e-06
-3.23399e-07
0.000864322
4.90684e-06
0.000753175
2.9316e-06
6.72041e-06
0.000723836
2.44063e-06
7.79351e-06
0.000850101
5.42816e-06
9.27314e-06
0.000878954
1.65728e-06
7.97831e-06
0.00087278
4.5823e-06
6.65068e-06
0.000869544
3.5897e-06
4.87009e-06
0.000871466
3.52379e-06
2.40201e-06
0.000879263
4.58865e-06
1.31678e-06
0.000888025
1.69043e-06
4.45309e-07
0.000860068
5.11569e-06
0.000750765
2.85993e-06
8.02832e-06
0.000713453
2.33049e-06
9.07713e-06
0.000843543
5.48452e-06
1.1001e-05
0.000875473
1.53442e-06
9.86763e-06
0.00086933
4.55994e-06
8.73705e-06
0.000867227
3.42262e-06
6.97368e-06
0.000869861
3.33857e-06
4.24206e-06
0.000877319
4.64664e-06
2.89044e-06
0.000887749
1.60679e-06
1.21432e-06
0.000856458
5.27375e-06
0.000749028
2.95351e-06
9.74049e-06
0.000701481
2.2079e-06
1.08342e-05
0.000837031
5.39701e-06
1.33709e-05
0.000871545
1.37094e-06
1.24036e-05
0.000865796
4.48252e-06
1.14405e-05
0.000864893
3.27557e-06
9.6769e-06
0.000868455
3.1437e-06
6.58406e-06
0.000875754
4.6319e-06
4.94241e-06
0.00088792
1.45097e-06
2.19572e-06
0.000853908
5.28546e-06
0.000748117
3.10896e-06
1.19445e-05
0.000687441
2.07457e-06
1.33065e-05
0.000830409
5.2407e-06
1.65263e-05
0.000867051
1.25804e-06
1.58031e-05
0.000862128
4.37593e-06
1.49802e-05
0.000862537
3.16137e-06
1.315e-05
0.000867296
2.96728e-06
9.58992e-06
0.000874699
4.59196e-06
7.55934e-06
0.000888647
1.28525e-06
3.46871e-06
0.000852741
5.24635e-06
0.000748315
3.27118e-06
1.48051e-05
0.000670661
1.95817e-06
1.67785e-05
0.000823338
5.08325e-06
2.06982e-05
0.000861868
1.2507e-06
2.03418e-05
0.000858208
4.26502e-06
1.96177e-05
0.000860143
3.10525e-06
1.76141e-05
0.000866441
2.84001e-06
1.34692e-05
0.000874276
4.5484e-06
1.08148e-05
0.000890107
1.17919e-06
5.10992e-06
0.000853229
5.20602e-06
0.000749982
3.44354e-06
1.85094e-05
0.00065022
1.9179e-06
2.15559e-05
0.000815301
4.97952e-06
2.6232e-05
0.000855797
1.38621e-06
2.63252e-05
0.000853895
4.2106e-06
2.56538e-05
0.000857658
3.14572e-06
2.33879e-05
0.000865908
2.78507e-06
1.84984e-05
0.000874609
4.54073e-06
1.48743e-05
0.000892528
1.18967e-06
7.23304e-06
0.000855668
5.19324e-06
0.000753523
3.69324e-06
2.32634e-05
0.000624907
2.04003e-06
2.8009e-05
0.000805538
5.00796e-06
3.35479e-05
0.000848554
1.69636e-06
3.41461e-05
0.000849023
4.26806e-06
3.35036e-05
0.000854968
3.32507e-06
3.08538e-05
0.000865686
2.85949e-06
2.50126e-05
0.000875826
4.61035e-06
2.00287e-05
0.000896157
1.34398e-06
9.99143e-06
0.000860426
5.27136e-06
0.00075943
4.08392e-06
2.92755e-05
0.000593176
2.44828e-06
3.66052e-05
0.000792919
5.28381e-06
4.31443e-05
0.000839741
2.26906e-06
4.4327e-05
0.00084333
4.50568e-06
4.371e-05
0.000851877
3.70145e-06
4.05389e-05
0.00086572
3.12732e-06
3.34568e-05
0.000878067
4.82932e-06
2.66367e-05
0.000901274
1.69266e-06
1.35894e-05
0.000867969
5.49797e-06
0.000768331
4.68887e-06
3.66994e-05
0.000553148
3.32444e-06
4.78934e-05
0.000775746
5.97431e-06
5.56797e-05
0.000828754
3.19722e-06
5.75262e-05
0.000836441
5.03878e-06
5.69241e-05
0.000848102
4.37276e-06
5.31129e-05
0.000865859
3.6647e-06
4.44371e-05
0.000881462
5.27139e-06
3.51843e-05
0.000908214
2.30384e-06
1.83035e-05
0.000878886
5.95668e-06
0.000781035
5.59863e-06
4.55701e-05
0.000502663
4.91311e-06
6.2479e-05
0.000751528
7.3071e-06
7.19149e-05
0.00081468
4.6356e-06
7.45309e-05
0.000827829
5.99445e-06
7.39743e-05
0.000843211
5.4438e-06
6.94279e-05
0.000865801
4.59788e-06
5.87899e-05
0.000886039
6.05246e-06
4.63587e-05
0.000917346
3.29183e-06
2.45435e-05
0.000893934
6.76133e-06
0.000798637
6.94099e-06
5.56641e-05
0.000439538
7.46059e-06
8.08464e-05
0.000716792
9.55341e-06
9.2687e-05
0.000796042
6.79756e-06
9.63002e-05
0.000816671
7.54362e-06
9.591e-05
0.00083653
7.06901e-06
9.06126e-05
0.000865005
6.08772e-06
7.7658e-05
0.000891653
7.33284e-06
6.11361e-05
0.000929053
4.80805e-06
3.2896e-05
0.00091408
8.08779e-06
0.00082263
8.90092e-06
6.62568e-05
0.000362196
1.10868e-05
0.000102978
0.000667116
1.29546e-05
0.000118797
0.000770251
9.97189e-06
0.000123972
0.000801575
9.92218e-06
0.000124042
0.000826984
9.47583e-06
0.000118166
0.000862514
8.36318e-06
0.000102648
0.000897832
9.33284e-06
8.09567e-05
0.000943669
7.06905e-06
4.42775e-05
0.000940584
1.01693e-05
0.000855165
1.17401e-05
7.57964e-05
0.000270782
1.56206e-05
0.000127668
0.000597665
1.75813e-05
0.000150638
0.000732837
1.44459e-05
0.000158753
0.000779968
1.34945e-05
0.000160021
0.000812771
1.29451e-05
0.000154127
0.000856686
1.1719e-05
0.000136088
0.000903503
1.23624e-05
0.000108021
0.000961342
1.03862e-05
6.01072e-05
0.000975137
1.33553e-05
0.000899434
1.58352e-05
8.15069e-05
0.00016911
2.01673e-05
0.000151642
0.000504535
2.29978e-05
0.000187353
0.000676642
2.04848e-05
0.000201712
0.0007468
1.88099e-05
0.00020587
0.000790701
1.79115e-05
0.000201211
0.000844797
1.65421e-05
0.000181348
0.000906527
1.68302e-05
0.000145894
0.000981621
1.51683e-05
8.2968e-05
0.00101992
1.81327e-05
0.000960643
2.17548e-05
7.85898e-05
6.81322e-05
2.23901e-05
0.000168307
0.000386953
2.78647e-05
0.000225446
0.000591229
2.82727e-05
0.000253162
0.000692324
2.67542e-05
0.000264108
0.000754609
2.5137e-05
0.000263255
0.000822288
2.33483e-05
0.000243515
0.000903004
2.32474e-05
0.000200412
0.00100275
2.19567e-05
0.000117128
0.001078
2.51928e-05
0.00104746
3.02969e-05
5.81787e-05
-1.1127e-05
2.10811e-05
0.000167587
0.000247501
3.00407e-05
0.000257453
0.000464163
3.71886e-05
0.000310404
0.000601035
3.83206e-05
0.000336456
0.000692632
3.58977e-05
0.000344898
0.000780812
3.3002e-05
0.000329958
0.000885648
3.22584e-05
0.000281606
0.00101962
3.14491e-05
0.000173367
0.00115061
3.55895e-05
0.00117786
4.29361e-05
1.01256e-05
-5.0155e-05
2.8913e-05
0.000139904
8.03661e-05
3.73475e-05
0.000271801
0.00028259
4.96591e-05
0.000366621
0.000451992
5.41993e-05
0.000423815
0.000584116
5.12905e-05
0.000452988
0.000705103
4.64953e-05
0.000452305
0.000841793
4.45006e-05
0.000405638
0.00102213
4.41091e-05
0.00026929
0.00123665
5.02651e-05
0.00138595
6.12021e-05
-1.88708e-06
-8.17336e-05
3.35507e-05
0.00010101
-7.25738e-05
5.00799e-05
0.000250326
6.3748e-05
6.954e-05
0.000391906
0.000231594
7.88135e-05
0.000506047
0.000394715
7.52427e-05
0.000585084
0.000559265
6.67802e-05
0.000626318
0.000738882
6.16417e-05
0.000598061
0.000989518
6.08492e-05
0.000478004
0.00128577
7.09376e-05
0.00177521
8.87371e-05
7.71143e-05
9.62003e-06
-0.000168378
0.000177222
2.71418e-05
-0.00019975
0.000284409
6.04695e-05
-0.000103825
0.000408117
8.7355e-05
2.0644e-05
0.000557569
9.64772e-05
0.000148903
0.00071047
9.17414e-05
0.000314716
0.000851338
8.31827e-05
0.000514916
0.000905681
7.96604e-05
0.000855581
0.000894943
9.01417e-05
0.00120642
0.000125012
0.00254518
5.47495e-05
0.000971681
2.29491e-05
2.07749e-05
0.00106794
2.07208e-05
6.44774e-06
0.00104982
2.13191e-05
2.25122e-06
0.00103937
2.1467e-05
6.25025e-08
0.00103747
2.15954e-05
-2.13233e-06
0.00103748
2.15951e-05
-6.3448e-06
0.00103938
2.14662e-05
-2.07045e-05
0.00104985
2.13164e-05
-5.48037e-05
0.00106805
2.07204e-05
0.000971635
2.2976e-05
3.75296e-05
0.000941918
2.3283e-05
2.35842e-05
0.00109586
2.34551e-05
1.31928e-05
0.00107638
2.31443e-05
5.86144e-06
0.00106264
2.30411e-05
1.80598e-07
0.00105937
2.31919e-05
-5.51228e-06
0.00105939
2.31939e-05
-1.28777e-05
0.0010627
2.30368e-05
-2.33045e-05
0.00107645
2.31123e-05
-3.72103e-05
0.00109587
2.34568e-05
0.000942241
2.33197e-05
2.12043e-05
0.000920281
1.63483e-05
1.87414e-05
0.00110087
1.84358e-05
1.19563e-05
0.00108775
1.7395e-05
5.75821e-06
0.00107366
1.6992e-05
3.67621e-07
0.00106994
1.72586e-05
-5.04449e-06
0.00106999
1.72558e-05
-1.13275e-05
0.00107383
1.6981e-05
-1.83017e-05
0.00108799
1.74054e-05
-2.09329e-05
0.00110097
1.84715e-05
0.000920983
1.63683e-05
1.1653e-05
0.000905235
1.17925e-05
1.4937e-05
0.00109421
1.46109e-05
1.00005e-05
0.00108986
1.42041e-05
4.905e-06
0.00107678
1.39434e-05
5.72364e-07
0.00107307
1.37674e-05
-3.80331e-06
0.00107319
1.37611e-05
-9.00922e-06
0.00107714
1.38849e-05
-1.42711e-05
0.00109063
1.39749e-05
-1.11657e-05
0.00109445
1.46167e-05
0.000906553
1.17543e-05
7.08847e-06
0.000893876
9.05859e-06
1.22857e-05
0.00108382
1.18077e-05
8.85746e-06
0.0010874
1.15326e-05
4.61932e-06
0.00107613
1.17328e-05
8.27923e-07
0.00107302
1.14007e-05
-3.00943e-06
0.00107322
1.13831e-05
-7.38128e-06
0.00107673
1.16761e-05
-1.12649e-05
0.00108898
1.11692e-05
-6.18873e-06
0.00108421
1.18413e-05
0.000896215
8.92144e-06
5.73114e-06
0.000884521
6.99119e-06
1.07043e-05
0.00107409
9.90657e-06
8.08527e-06
0.00108467
8.64732e-06
4.45921e-06
0.00107545
9.1911e-06
1.1365e-06
0.00107239
9.47745e-06
-2.23647e-06
0.00107265
9.45262e-06
-6.04978e-06
0.00107627
9.13222e-06
-8.86633e-06
0.00108659
8.51133e-06
-4.11625e-06
0.00107479
9.6709e-06
0.00088842
6.85636e-06
5.5291e-06
0.000876373
5.49671e-06
9.56386e-06
0.00106632
8.47597e-06
7.41398e-06
0.00108238
6.84243e-06
4.39282e-06
0.00107501
7.8583e-06
1.52205e-06
0.00107175
8.24202e-06
-1.44187e-06
0.00107211
8.19976e-06
-4.87078e-06
0.00107609
7.75152e-06
-7.8982e-06
0.00108478
6.96397e-06
-3.57783e-06
0.0010663
8.99176e-06
0.000882702
5.01617e-06
6.00411e-06
0.000869439
3.91752e-06
1.0028e-05
0.00105865
8.57387e-06
7.30389e-06
0.00108079
5.97933e-06
4.58316e-06
0.00107476
7.24212e-06
2.00319e-06
0.00107128
7.40277e-06
-7.50664e-07
0.00107179
7.33876e-06
-3.87527e-06
0.00107569
7.49931e-06
-7.29917e-06
0.00108345
6.05965e-06
-3.13051e-06
0.00105807
8.72076e-06
0.000878789
3.80037e-06
6.57202e-06
0.000863325
2.80652e-06
1.08948e-05
0.00105043
8.93939e-06
7.69782e-06
0.0010796
5.47891e-06
5.04134e-06
0.0010748
6.89499e-06
2.59537e-06
0.00107106
6.78784e-06
-6.39354e-09
0.0010717
6.72504e-06
-2.9225e-06
0.00107546
7.12383e-06
-6.50452e-06
0.00108261
5.37771e-06
-3.05678e-06
0.00105106
8.38738e-06
0.000875993
2.93886e-06
7.21714e-06
0.000856368
2.81092e-06
1.01601e-05
0.00104504
7.58075e-06
7.97349e-06
0.00107833
4.69375e-06
5.68184e-06
0.00107483
6.66102e-06
3.39327e-06
0.00107103
6.2563e-06
9.36033e-07
0.00107188
6.16885e-06
-1.91623e-06
0.00107603
6.49096e-06
-5.08305e-06
0.00108225
4.62561e-06
-2.80278e-06
0.00104624
7.4745e-06
0.000873491
2.91776e-06
8.09377e-06
0.000847876
3.09827e-06
9.64074e-06
0.00104255
6.26467e-06
8.40139e-06
0.00107726
3.94399e-06
6.57242e-06
0.00107478
6.43299e-06
4.45307e-06
0.00107118
5.7693e-06
2.0795e-06
0.00107235
5.6641e-06
-5.39056e-07
0.00107694
6.20259e-06
-2.98576e-06
0.00108229
3.98098e-06
-2.50113e-06
0.00104466
6.0498e-06
0.00087073
3.21931e-06
9.22772e-06
0.000838184
2.97447e-06
1.04501e-05
0.00104082
5.99886e-06
9.42421e-06
0.00107645
3.55791e-06
7.83874e-06
0.0010748
6.20816e-06
5.82171e-06
0.00107149
5.35663e-06
3.47366e-06
0.00107301
5.28133e-06
8.39407e-07
0.00107817
6.0556e-06
-1.7658e-06
0.00108297
3.67122e-06
-2.22174e-06
0.00104453
5.74599e-06
0.000868408
2.98719e-06
1.0531e-05
0.000827501
2.54766e-06
1.19678e-05
0.00103884
6.09068e-06
1.1021e-05
0.0010756
3.3921e-06
9.56398e-06
0.00107481
6.07284e-06
7.60755e-06
0.0010719
5.03168e-06
5.23499e-06
0.00107383
4.95794e-06
2.38499e-06
0.00107976
5.96841e-06
-6.11612e-07
0.00108415
3.47856e-06
-1.65821e-06
0.00104511
5.784e-06
0.000867143
2.58471e-06
1.20163e-05
0.000815681
2.07336e-06
1.39065e-05
0.00103625
6.15715e-06
1.3169e-05
0.0010745
3.25572e-06
1.18579e-05
0.00107463
6.02563e-06
9.94611e-06
0.00107236
4.78853e-06
7.48435e-06
0.00107483
4.66358e-06
4.33907e-06
0.00108167
5.93263e-06
9.1093e-07
0.00108581
3.26533e-06
-7.2441e-07
0.00104626
5.80568e-06
0.000867312
2.23744e-06
1.38623e-05
0.000802282
1.66834e-06
1.63949e-05
0.00103281
6.20022e-06
1.60014e-05
0.00107305
3.15215e-06
1.48638e-05
0.00107421
5.9792e-06
1.29892e-05
0.00107284
4.60341e-06
1.03849e-05
0.00107604
4.41524e-06
6.86827e-06
0.00108393
5.89728e-06
2.87866e-06
0.00108812
3.00575e-06
4.78424e-07
0.00104811
5.82833e-06
0.000869068
2.01478e-06
1.62393e-05
0.000786682
1.3713e-06
1.96273e-05
0.0010283
6.24534e-06
1.97242e-05
0.00107108
3.17153e-06
1.87771e-05
0.00107354
5.93362e-06
1.69421e-05
0.00107332
4.51013e-06
1.41482e-05
0.00107746
4.25756e-06
1.01509e-05
0.00108664
5.8845e-06
5.46845e-06
0.00109123
2.79011e-06
1.97025e-06
0.00105102
5.82234e-06
0.000872558
1.94116e-06
1.93115e-05
0.000768097
1.23861e-06
2.38518e-05
0.00102246
6.33158e-06
2.45975e-05
0.00106845
3.3212e-06
2.38741e-05
0.00107255
5.96811e-06
2.20722e-05
0.00107377
4.5425e-06
1.90174e-05
0.00107917
4.17558e-06
1.4397e-05
0.00108993
5.91463e-06
8.83166e-06
0.00109533
2.69543e-06
3.88225e-06
0.00105538
5.81803e-06
0.000878155
1.99484e-06
2.32606e-05
0.000745601
1.32031e-06
2.94053e-05
0.00101482
6.54087e-06
3.09401e-05
0.00106501
3.63889e-06
3.05029e-05
0.00107116
6.13718e-06
2.87209e-05
0.0010742
4.71691e-06
2.53152e-05
0.00108127
4.20701e-06
1.98896e-05
0.00109401
5.99626e-06
1.31751e-05
0.00110073
2.69461e-06
6.35033e-06
0.00106164
5.86133e-06
0.000886401
2.2032e-06
2.82817e-05
0.000718143
1.66569e-06
3.67135e-05
0.00100471
6.99916e-06
3.91896e-05
0.00106061
4.22214e-06
3.90927e-05
0.00106932
6.4797e-06
3.7315e-05
0.00107466
5.06349e-06
3.34592e-05
0.00108389
4.40432e-06
2.70178e-05
0.0010991
6.20751e-06
1.87948e-05
0.00110783
2.84081e-06
9.53161e-06
0.00107042
6.00091e-06
0.000898011
2.62269e-06
3.45394e-05
0.000684518
2.44784e-06
4.62372e-05
0.00099117
7.84484e-06
4.98575e-05
0.00105509
5.13239e-06
5.01802e-05
0.00106697
7.09802e-06
4.84099e-05
0.00107514
5.68952e-06
4.39954e-05
0.00108718
4.82732e-06
3.62914e-05
0.00110549
6.61744e-06
2.60997e-05
0.00111715
3.20169e-06
1.36682e-05
0.00108252
6.30658e-06
0.000913966
3.32286e-06
4.21546e-05
0.000643356
3.95768e-06
5.84721e-05
0.000972927
9.26369e-06
6.35914e-05
0.00104812
6.52258e-06
6.44453e-05
0.00106403
8.11387e-06
6.2715e-05
0.00107565
6.70538e-06
5.76558e-05
0.00109128
5.58266e-06
4.84021e-05
0.00111353
7.29489e-06
3.5653e-05
0.00112935
3.85917e-06
1.90832e-05
0.001099
6.86886e-06
0.000935592
4.40674e-06
5.11238e-05
0.000593145
6.58337e-06
7.3866e-05
0.000948253
1.15146e-05
8.11437e-05
0.00103906
8.61012e-06
8.2705e-05
0.00106036
9.6813e-06
8.11284e-05
0.00107607
8.25852e-06
7.54114e-05
0.00109629
6.82416e-06
6.43131e-05
0.00112362
8.37229e-06
4.82783e-05
0.00114527
4.94129e-06
2.6279e-05
0.00112127
7.82507e-06
0.000964755
6.02473e-06
6.11695e-05
0.000532406
1.06917e-05
9.26999e-05
0.000914767
1.49388e-05
0.000103338
0.00102671
1.17136e-05
0.000105965
0.00105564
1.20397e-05
0.000104818
0.00107612
1.05951e-05
9.85949e-05
0.00110212
8.78907e-06
8.54152e-05
0.00113611
1.00442e-05
6.52025e-05
0.00116595
6.6235e-06
3.60175e-05
0.00115128
9.35889e-06
0.00100413
8.39311e-06
7.15936e-05
0.000459996
1.64723e-05
0.000114861
0.00086913
1.99779e-05
0.000130918
0.00100891
1.62114e-05
0.00013545
0.00104904
1.55908e-05
0.000135298
0.00107524
1.4009e-05
0.000129043
0.00110833
1.17846e-05
0.00011376
0.00115117
1.2602e-05
8.83678e-05
0.00119254
9.20396e-06
4.95295e-05
0.00119172
1.1757e-05
0.00105768
1.18169e-05
8.09635e-05
0.000375724
2.351e-05
0.000139191
0.000807147
2.67768e-05
0.000164238
0.000981795
2.25769e-05
0.000172577
0.00103861
2.09249e-05
0.000174534
0.00107225
1.89646e-05
0.000169291
0.00111393
1.62118e-05
0.00015242
0.00116847
1.642e-05
0.000120965
0.00122614
1.3036e-05
6.91162e-05
0.0012463
1.5409e-05
0.00113181
1.67449e-05
8.66262e-05
0.00028135
3.01682e-05
0.000162736
0.000724074
3.48473e-05
0.000202643
0.000938835
3.13442e-05
0.000218847
0.00102036
2.88158e-05
0.000225176
0.00106496
2.61164e-05
0.00022297
0.00111692
2.25758e-05
0.000206102
0.00118665
2.1943e-05
0.000168312
0.00126732
1.85693e-05
9.85316e-05
0.00132042
2.08519e-05
0.00123685
2.37846e-05
8.47183e-05
0.000184268
3.34673e-05
0.000180157
0.000616735
4.19533e-05
0.000243243
0.000870569
4.23769e-05
0.000274917
0.000986799
4.02151e-05
0.000290309
0.00104917
3.62916e-05
0.000294993
0.00111386
3.13722e-05
0.00028193
0.00120245
2.95142e-05
0.000239742
0.00131477
2.61713e-05
0.000147748
0.0014193
2.8691e-05
0.0013938
3.37181e-05
6.82716e-05
0.000110927
3.40153e-05
0.00018502
0.000489569
4.77763e-05
0.000281213
0.00076874
5.53004e-05
0.000340146
0.00092686
5.52053e-05
0.000373436
0.0010175
4.96682e-05
0.000391991
0.00109946
4.23302e-05
0.000390673
0.00120969
3.85645e-05
0.000350984
0.00136325
3.53083e-05
0.000233039
0.00154851
3.89868e-05
0.00164085
4.71962e-05
4.57389e-05
7.2196e-05
2.66126e-05
0.000172272
0.000360583
5.256e-05
0.000303141
0.00063871
6.87193e-05
0.00040468
0.000831991
7.216e-05
0.0004743
0.000958144
6.49917e-05
0.000521139
0.00106553
5.38802e-05
0.00054825
0.00119729
4.69403e-05
0.000523238
0.00140565
4.34708e-05
0.000421422
0.00167057
5.07108e-05
0.00208703
6.39871e-05
6.38417e-05
-8.84914e-06
2.70094e-05
0.000176267
3.68483e-05
0.000238535
0.000316182
6.19436e-05
0.000497386
0.000452931
6.95331e-05
0.000713124
0.000573819
6.31898e-05
0.000870615
0.000676601
5.05352e-05
0.00100402
0.000774759
4.12404e-05
0.00114115
0.00080717
3.79462e-05
0.00141503
0.00080226
5.15953e-05
0.00171409
8.02714e-05
0.00293407
5.6867e-05
0.000957771
8.30722e-06
2.13692e-05
0.00104983
6.38681e-06
6.31175e-06
0.00103012
6.25452e-06
2.10566e-06
0.00101942
6.24639e-06
5.60943e-08
0.00101739
6.25162e-06
-1.99899e-06
0.0010174
6.25097e-06
-6.2199e-06
0.00101944
6.24494e-06
-2.13212e-05
0.00103016
6.25356e-06
-5.69765e-05
0.00104998
6.3911e-06
0.000957687
8.312e-06
3.93919e-05
0.000928435
1.32189e-05
2.32475e-05
0.0010764
1.30235e-05
1.28074e-05
0.00105105
1.26527e-05
5.84837e-06
0.00103687
1.25454e-05
1.61143e-07
0.00103372
1.25306e-05
-5.54176e-06
0.00103375
1.2528e-05
-1.25378e-05
0.00103693
1.25371e-05
-2.29944e-05
0.00105109
1.26468e-05
-3.89775e-05
0.00107638
1.30442e-05
0.000928814
1.32153e-05
2.22394e-05
0.000911068
1.14745e-05
1.77358e-05
0.00108771
1.16233e-05
1.13817e-05
0.00106372
1.10757e-05
5.76599e-06
0.00104855
1.09182e-05
3.50807e-07
0.00104546
1.09263e-05
-5.09581e-06
0.00104554
1.09181e-05
-1.08182e-05
0.00104874
1.09048e-05
-1.73275e-05
0.00106394
1.10743e-05
-2.18611e-05
0.00108776
1.16297e-05
0.000911878
1.14475e-05
1.16886e-05
0.000901655
9.52388e-06
1.42711e-05
0.00109027
9.48395e-06
9.42283e-06
0.00107385
8.9325e-06
4.81164e-06
0.00105827
8.84076e-06
5.61668e-07
0.00105465
8.83513e-06
-3.72133e-06
0.00105476
8.82629e-06
-8.45305e-06
0.00105856
8.8138e-06
-1.35897e-05
0.00107418
8.88695e-06
-1.11537e-05
0.00109047
9.48393e-06
0.000903083
9.40104e-06
6.17546e-06
0.000896448
8.10793e-06
1.15969e-05
0.00108861
8.06217e-06
8.22553e-06
0.00108122
7.55717e-06
4.29798e-06
0.00106626
7.69116e-06
8.12577e-07
0.00106182
7.72948e-06
-2.72186e-06
0.00106197
7.72483e-06
-6.77818e-06
0.00106665
7.65958e-06
-1.05132e-05
0.00108164
7.46678e-06
-5.222e-06
0.00108898
8.05752e-06
0.000898867
7.92321e-06
4.04859e-06
0.000892806
6.61042e-06
9.44695e-06
0.00108613
7.02157e-06
7.09646e-06
0.00108604
6.20377e-06
3.90209e-06
0.00107217
6.50322e-06
1.11116e-06
0.00106741
6.70578e-06
-1.76321e-06
0.00106763
6.70116e-06
-5.16122e-06
0.00107273
6.47378e-06
-7.77288e-06
0.00108666
6.12176e-06
-2.59852e-06
0.00108653
6.96197e-06
0.000896656
6.47548e-06
3.35699e-06
0.000889589
5.39128e-06
8.2269e-06
0.00108375
6.01607e-06
6.15191e-06
0.00109003
4.95807e-06
3.68472e-06
0.00107711
5.41686e-06
1.47363e-06
0.00107221
5.68785e-06
-8.63116e-07
0.00107251
5.68291e-06
-3.66651e-06
0.00107792
5.3963e-06
-6.0987e-06
0.00109114
4.94708e-06
-1.18823e-06
0.00108456
6.07797e-06
0.000895266
5.22639e-06
2.87474e-06
0.000886203
4.46836e-06
7.78953e-06
0.00108197
5.47839e-06
5.70828e-06
0.00109403
4.09965e-06
3.78536e-06
0.00108164
4.67247e-06
1.92341e-06
0.00107662
4.89388e-06
-1.36245e-07
0.00107706
4.88793e-06
-2.38286e-06
0.00108298
4.72504e-06
-5.10295e-06
0.00109584
4.10665e-06
-1.78155e-07
0.00108278
5.59105e-06
0.000894584
4.31515e-06
2.63354e-06
0.00088254
3.88222e-06
7.65608e-06
0.00108062
5.30979e-06
5.66581e-06
0.00109804
3.51108e-06
4.19126e-06
0.00108585
4.20999e-06
2.53282e-06
0.00108077
4.34503e-06
6.64956e-07
0.00108138
4.32304e-06
-1.22251e-06
0.00108772
4.30983e-06
-3.87498e-06
0.00110048
3.42115e-06
5.77014e-07
0.00108151
5.2396e-06
0.000894308
3.80527e-06
3.23182e-06
0.000878587
3.58299e-06
7.45925e-06
0.00107914
4.88464e-06
5.78392e-06
0.00110153
2.91806e-06
4.8396e-06
0.00108963
3.87047e-06
3.35551e-06
0.00108464
3.92075e-06
1.63258e-06
0.00108544
3.87929e-06
-7.34817e-08
0.00109205
3.91763e-06
-2.64198e-06
0.00110491
2.80765e-06
7.78194e-07
0.0010806
4.98701e-06
0.000894531
3.48714e-06
4.21605e-06
0.000874129
3.39363e-06
7.61032e-06
0.00107767
4.39427e-06
6.22562e-06
0.0011045
2.40522e-06
5.7455e-06
0.00109299
3.59681e-06
4.40471e-06
0.00108824
3.55547e-06
2.74883e-06
0.00108931
3.50153e-06
1.25342e-06
0.00109618
3.61903e-06
-1.14851e-06
0.00110909
2.2418e-06
6.26735e-07
0.00108027
4.6414e-06
0.000895076
3.31756e-06
5.13622e-06
0.000868797
3.22383e-06
8.24384e-06
0.00107642
4.18154e-06
7.14412e-06
0.00110713
2.07957e-06
6.98621e-06
0.00109601
3.39528e-06
5.74883e-06
0.00109163
3.25449e-06
4.1454e-06
0.00109306
3.19179e-06
2.81334e-06
0.0011002
3.40598e-06
5.96818e-07
0.00111324
1.7731e-06
9.25427e-07
0.00108134
4.37878e-06
0.000895615
3.38928e-06
6.09448e-06
0.000862197
3.10597e-06
9.22663e-06
0.00107533
4.10296e-06
8.51997e-06
0.00110939
1.8804e-06
8.64725e-06
0.00109873
3.26613e-06
7.49419e-06
0.00109484
3.02444e-06
5.88506e-06
0.00109673
2.94541e-06
4.5834e-06
0.00110425
3.26601e-06
2.28514e-06
0.00111761
1.44106e-06
1.64017e-06
0.00108358
4.2218e-06
0.000896391
3.46587e-06
7.3297e-06
0.00085402
2.97079e-06
1.07332e-05
0.00107404
4.08078e-06
1.04244e-05
0.00111123
1.76719e-06
1.08398e-05
0.00110118
3.20573e-06
9.75804e-06
0.0010979
2.86058e-06
8.06525e-06
0.00110038
2.75061e-06
6.67369e-06
0.00110842
3.19458e-06
4.074e-06
0.00112229
1.21715e-06
2.63103e-06
0.00108673
4.12653e-06
0.000897817
3.46009e-06
8.99496e-06
0.000843923
2.81842e-06
1.28727e-05
0.0010723
4.11246e-06
1.30162e-05
0.00111254
1.72954e-06
1.36974e-05
0.00110333
3.18808e-06
1.26818e-05
0.00110081
2.74921e-06
1.0852e-05
0.00110407
2.60063e-06
9.2407e-06
0.0011128
3.16898e-06
6.13367e-06
0.00112737
1.07021e-06
3.87728e-06
0.00109074
4.09963e-06
0.000900345
3.37979e-06
1.12259e-05
0.000831394
2.71901e-06
1.57529e-05
0.00106987
4.18245e-06
1.64682e-05
0.00111326
1.77918e-06
1.73973e-05
0.00110516
3.21033e-06
1.6455e-05
0.0011036
2.70248e-06
1.44399e-05
0.00110787
2.50972e-06
1.2462e-05
0.00111751
3.18615e-06
8.67285e-06
0.00113299
9.82778e-07
5.40454e-06
0.00109573
4.12263e-06
0.0009044
3.30654e-06
1.41845e-05
0.000815764
2.72559e-06
1.96182e-05
0.00106648
4.32359e-06
2.10038e-05
0.0011133
1.92899e-06
2.22007e-05
0.00110667
3.2954e-06
2.13357e-05
0.0011063
2.74343e-06
1.90627e-05
0.00111187
2.4863e-06
1.65517e-05
0.00112271
3.25345e-06
1.19262e-05
0.00113939
9.55818e-07
7.28499e-06
0.00110205
4.16855e-06
0.000910371
3.32368e-06
1.80334e-05
0.000796188
2.90081e-06
2.47607e-05
0.00106176
4.56449e-06
2.6922e-05
0.00111259
2.21501e-06
2.84253e-05
0.00110786
3.47949e-06
2.76331e-05
0.00110895
2.89613e-06
2.50245e-05
0.00111617
2.54938e-06
2.17905e-05
0.00112859
3.37972e-06
1.60884e-05
0.00114681
1.00006e-06
9.64756e-06
0.00111013
4.24183e-06
0.000918772
3.46284e-06
2.29156e-05
0.000771645
3.32921e-06
3.14651e-05
0.00105527
4.97573e-06
3.45819e-05
0.00111104
2.68699e-06
3.64548e-05
0.00110869
3.80384e-06
3.57335e-05
0.00111158
3.19282e-06
3.26994e-05
0.0011209
2.73862e-06
2.85273e-05
0.0011354
3.60176e-06
2.14065e-05
0.00115563
1.15706e-06
1.26427e-05
0.00112052
4.38916e-06
0.000930318
3.73237e-06
2.89673e-05
0.000741074
4.08589e-06
4.02012e-05
0.00104624
5.66863e-06
4.44441e-05
0.00110852
3.4361e-06
4.67644e-05
0.00110916
4.34131e-06
4.61435e-05
0.00111422
3.69409e-06
4.25867e-05
0.00112621
3.10404e-06
3.72295e-05
0.00114343
3.97277e-06
2.82652e-05
0.00116634
1.47853e-06
1.65012e-05
0.00113395
4.65962e-06
0.000945973
4.18074e-06
3.62513e-05
0.000703488
5.32407e-06
5.14431e-05
0.00103353
6.80511e-06
5.70847e-05
0.00110486
4.56991e-06
5.99492e-05
0.00110924
5.18828e-06
5.94967e-05
0.00111692
4.48417e-06
5.53522e-05
0.00113224
3.72015e-06
4.85261e-05
0.00115302
4.55223e-06
3.71912e-05
0.00117953
2.01903e-06
2.15318e-05
0.00115139
5.10958e-06
0.000967035
4.88765e-06
4.47099e-05
0.000658082
7.31133e-06
6.55955e-05
0.00101564
8.547e-06
7.31535e-05
0.00109972
6.21421e-06
7.67084e-05
0.00110893
6.4648e-06
7.65777e-05
0.00111967
5.67027e-06
7.18699e-05
0.00113911
4.6905e-06
6.32936e-05
0.00116456
5.42886e-06
4.89329e-05
0.00119599
2.86664e-06
2.8199e-05
0.00117414
5.82264e-06
0.000995319
5.94942e-06
5.40945e-05
0.000604448
1.02626e-05
8.28095e-05
0.000990785
1.11014e-05
9.32796e-05
0.00109244
8.54503e-06
9.7844e-05
0.0011081
8.33071e-06
9.83602e-05
0.00112237
7.40455e-06
9.33032e-05
0.00114682
6.15819e-06
8.27794e-05
0.00117842
6.72279e-06
6.4613e-05
0.00121666
4.131e-06
3.72014e-05
0.00120401
6.91129e-06
0.00103343
7.49507e-06
6.38458e-05
0.000542811
1.4295e-05
0.00010297
0.000956936
1.47257e-05
0.000118006
0.00108187
1.17692e-05
0.000124282
0.00110644
1.10005e-05
0.000126049
0.00112477
9.87182e-06
0.000121209
0.00115518
8.29382e-06
0.000108795
0.00119487
8.5836e-06
8.59913e-05
0.00124272
5.95901e-06
4.96805e-05
0.00124358
8.51419e-06
0.00108524
9.68835e-06
7.31136e-05
0.000474045
1.9195e-05
0.000125197
0.000912112
1.95404e-05
0.00014749
0.00106606
1.6116e-05
0.000156967
0.00110318
1.47309e-05
0.00016111
0.00112633
1.32817e-05
0.000157676
0.00116357
1.12715e-05
0.000144028
0.0012138
1.11545e-05
0.00011594
0.00127537
8.48466e-06
6.77312e-05
0.00129643
1.07712e-05
0.00115703
1.26982e-05
8.05302e-05
0.00039956
2.41523e-05
0.000147692
0.000854445
2.5371e-05
0.00018124
0.0010421
2.17716e-05
0.000196706
0.00109677