/*--------------------------------*- C++ -*----------------------------------*\
| =========                 |                                                 |
| \\      /  F ield         | OpenFOAM: The Open Source CFD Toolbox           |
|  \\    /   O peration     | Version:  4.1                                   |
|   \\  /    A nd           | Web:      www.OpenFOAM.org                      |
|    \\/     M anipulation  |                                                 |
\*---------------------------------------------------------------------------*/
FoamFile
{
    version     2.0;
    format      ascii;
    class       volVectorField;
    location    "1500";
    object      U;
}
// * * * * * * * * * * * * * * * * * * * * * * * * * * * * * * * * * * * * * //

dimensions      [0 1 -1 0 0 0 0];

internalField   nonuniform List<vector> 
12000
(
(0.0919608 -0.00968866 0.00968401)
(0.0965627 -0.00180358 0.0106595)
(0.0959663 -0.00134889 0.0110652)
(0.0955751 -0.000557761 0.0110846)
(0.0954779 -0.000150359 0.0111136)
(0.0954781 0.000133803 0.0111137)
(0.0955754 0.000542223 0.0110849)
(0.0959663 0.00133457 0.011066)
(0.0965627 0.00178902 0.0106576)
(0.0919643 0.0096874 0.00968292)
(0.0862214 -0.00381562 0.00380554)
(0.095225 -0.00251917 0.00527098)
(0.0938121 -0.00194974 0.00569121)
(0.0927362 -0.000885021 0.00567072)
(0.0924009 -0.000278565 0.00570512)
(0.092402 0.000237283 0.00570516)
(0.0927386 0.000845381 0.00567039)
(0.0938141 0.00190976 0.00569075)
(0.0952284 0.00247348 0.0052742)
(0.0862389 0.00380972 0.00381408)
(0.0823005 0.000792215 -0.000811244)
(0.0934923 -0.00255193 0.000159585)
(0.0921741 -0.00162844 0.0004089)
(0.0909357 -0.000797955 0.000410662)
(0.0904419 -0.000300879 0.000450691)
(0.0904449 0.000228958 0.000450514)
(0.0909414 0.000729515 0.000409625)
(0.0921753 0.00156168 0.000404476)
(0.0935004 0.0024851 0.000163779)
(0.082355 -0.00080006 -0.000790655)
(0.0796107 0.00271331 -0.00274601)
(0.091397 -0.00252509 -0.0023806)
(0.0906552 -0.00118319 -0.00233283)
(0.0896055 -0.000663882 -0.00226478)
(0.089112 -0.000287236 -0.00219334)
(0.0891189 0.000179739 -0.00219357)
(0.0896232 0.000565607 -0.00226631)
(0.0906796 0.00108216 -0.00233597)
(0.0914239 0.00243018 -0.00237666)
(0.079725 -0.00273617 -0.00271817)
(0.0782348 0.00320255 -0.00325202)
(0.0899104 -0.00244556 -0.00331504)
(0.0899722 -0.000811672 -0.00337216)
(0.0891732 -0.000613921 -0.00322128)
(0.0885092 -0.000292451 -0.00322132)
(0.0885199 0.00013196 -0.00322278)
(0.0891895 0.000469209 -0.00323205)
(0.089949 0.000666935 -0.0034157)
(0.0899548 0.00232749 -0.00331571)
(0.0784358 -0.00326117 -0.0032356)
(0.0775121 0.00308655 -0.00315164)
(0.0889668 -0.00230609 -0.00347226)
(0.0896613 -0.000509448 -0.00368637)
(0.0889935 -0.000627037 -0.0034843)
(0.0882613 -0.00031775 -0.00352163)
(0.0882802 8.44336e-05 -0.00352486)
(0.0890431 0.000411796 -0.00349657)
(0.0896462 0.000310792 -0.00374953)
(0.0890881 0.00216384 -0.00346902)
(0.0778421 -0.00319028 -0.00315321)
(0.0769009 0.00276213 -0.00284565)
(0.0882531 -0.00215902 -0.0033033)
(0.089448 -0.000296312 -0.00369825)
(0.0888411 -0.000660737 -0.00346047)
(0.0881088 -0.000335455 -0.00350158)
(0.0881392 6.49595e-06 -0.00351049)
(0.0889244 0.000355164 -0.0035044)
(0.0894804 6.48519e-06 -0.00378221)
(0.0883318 0.00196766 -0.00334859)
(0.0773713 -0.00289725 -0.00284106)
(0.0762035 0.00237881 -0.00248627)
(0.0874963 -0.00201811 -0.00307711)
(0.0891938 -0.000139405 -0.00358513)
(0.0886343 -0.000707287 -0.00328946)
(0.0879315 -0.000352831 -0.00333731)
(0.087977 -0.000110777 -0.00335267)
(0.0887636 0.000297311 -0.00337733)
(0.089314 -0.000223926 -0.00367149)
(0.0878825 0.00178158 -0.00300892)
(0.0768636 -0.00255611 -0.00247248)
(0.0754193 0.0019995 -0.00213953)
(0.0870328 -0.00192544 -0.00270843)
(0.0889129 -5.70049e-05 -0.00341111)
(0.0883606 -0.000776951 -0.00306812)
(0.0877236 -0.000380538 -0.00312402)
(0.0877863 -0.000236577 -0.00313917)
(0.0886661 0.000239732 -0.00310642)
(0.0891507 -0.000403989 -0.00347585)
(0.087383 0.00159148 -0.00266837)
(0.0763329 -0.0022436 -0.00212552)
(0.0745906 0.00166652 -0.00185155)
(0.0866021 -0.00186932 -0.00230775)
(0.088643 -9.17701e-05 -0.00319212)
(0.0880688 -0.000875971 -0.00284773)
(0.0875133 -0.000423501 -0.0029092)
(0.0876052 -0.000363984 -0.00291558)
(0.0884656 0.000172883 -0.00282727)
(0.0890061 -0.000542241 -0.00324547)
(0.0871232 0.00141498 -0.00226789)
(0.0758557 -0.00198504 -0.00182367)
(0.0737495 0.00136312 -0.00160747)
(0.0859913 -0.0018251 -0.00205428)
(0.0883634 -0.000189727 -0.00298038)
(0.0877682 -0.00100463 -0.00263729)
(0.0872952 -0.000496374 -0.00270923)
(0.0874147 -0.000521656 -0.00271646)
(0.0882487 7.90588e-05 -0.00258968)
(0.0889054 -0.000644548 -0.00301921)
(0.0866662 0.00122253 -0.00200652)
(0.0754748 -0.00178578 -0.00157351)
(0.0728666 0.00107162 -0.00139332)
(0.0853318 -0.00180609 -0.00189903)
(0.0880606 -0.000311171 -0.00280634)
(0.087452 -0.00116407 -0.00244508)
(0.0870727 -0.000615448 -0.00252876)
(0.0872337 -0.000718405 -0.00253901)
(0.0880358 -5.30862e-05 -0.00238637)
(0.0888318 -0.000771845 -0.00282623)
(0.0862043 0.00101598 -0.00184103)
(0.0751871 -0.00161702 -0.00135297)
(0.0718927 0.000786179 -0.00120996)
(0.0846725 -0.00183025 -0.00174726)
(0.0877281 -0.00047777 -0.00265346)
(0.0871066 -0.00136436 -0.00228915)
(0.0868391 -0.000788723 -0.00237529)
(0.0870631 -0.000959634 -0.00238206)
(0.0878245 -0.000234988 -0.00221831)
(0.0887803 -0.000931011 -0.002662)
(0.0858042 0.000792016 -0.00167933)
(0.0749739 -0.00148005 -0.00115721)
(0.0707834 0.000498713 -0.00105459)
(0.0840218 -0.00190888 -0.00160729)
(0.0873617 -0.000707922 -0.00250272)
(0.0867571 -0.00162286 -0.00214959)
(0.0866069 -0.00102931 -0.00223091)
(0.086913 -0.00126005 -0.00223863)
(0.0876448 -0.000478862 -0.00207485)
(0.0887738 -0.00113224 -0.00250445)
(0.0854875 0.000539606 -0.00153997)
(0.0748346 -0.00137528 -0.000981447)
(0.069497 0.00019771 -0.000921875)
(0.0833722 -0.00205863 -0.00148238)
(0.0869419 -0.0010174 -0.00236093)
(0.0863994 -0.00195913 -0.00202123)
(0.0863727 -0.00136115 -0.00209718)
(0.0867822 -0.0016374 -0.00210972)
(0.0875115 -0.000799827 -0.00194328)
(0.0888165 -0.00139256 -0.00235557)
(0.0852969 0.000250275 -0.00142224)
(0.0747936 -0.00130323 -0.000824236)
(0.0679749 -0.000129893 -0.000807584)
(0.0826976 -0.00230236 -0.00136735)
(0.0864616 -0.0014315 -0.00222615)
(0.0860247 -0.00239862 -0.00190509)
(0.0861358 -0.0018125 -0.00197547)
(0.0866799 -0.00211442 -0.001993)
(0.087434 -0.00122067 -0.00182452)
(0.0889207 -0.00172742 -0.00221936)
(0.0852588 -8.35447e-05 -0.00131704)
(0.0748806 -0.00126685 -0.000685102)
(0.0661395 -0.000498781 -0.000705421)
(0.0819567 -0.00266446 -0.00125672)
(0.0859041 -0.00198332 -0.0020915)
(0.0856138 -0.00297417 -0.00180043)
(0.0858929 -0.00241396 -0.00186024)
(0.0866126 -0.00272201 -0.00188192)
(0.0874284 -0.00177258 -0.00171452)
(0.0891103 -0.00215942 -0.00209127)
(0.0854005 -0.000476634 -0.00121977)
(0.0751334 -0.00127031 -0.000559297)
(0.0638857 -0.000924173 -0.000607065)
(0.0810887 -0.00317349 -0.0011448)
(0.0852468 -0.00271402 -0.00195115)
(0.0851605 -0.00372656 -0.00170062)
(0.0856385 -0.00320602 -0.00174485)
(0.0865745 -0.00350049 -0.00177285)
(0.0875052 -0.00249246 -0.00160962)
(0.0894113 -0.00272005 -0.00196314)
(0.0857535 -0.000953194 -0.00112594)
(0.0755966 -0.00131993 -0.00043985)
(0.0610776 -0.00142039 -0.000500934)
(0.0800031 -0.0038632 -0.00102293)
(0.0844545 -0.00367419 -0.00179824)
(0.0846404 -0.00470718 -0.00159944)
(0.0853564 -0.00424253 -0.00162418)
(0.0865691 -0.00450373 -0.00165871)
(0.087674 -0.00342949 -0.00150621)
(0.0898409 -0.00345027 -0.00183378)
(0.0863595 -0.00154348 -0.00103099)
(0.0763249 -0.00142574 -0.000319189)
(0.0575457 -0.0019955 -0.000371306)
(0.078567 -0.00476897 -0.000877118)
(0.0834854 -0.00492781 -0.0016211)
(0.0840214 -0.00598245 -0.00148674)
(0.0850197 -0.0055896 -0.00149225)
(0.0865826 -0.00579854 -0.00153388)
(0.0879556 -0.0046479 -0.00139579)
(0.0904403 -0.00440591 -0.00169376)
(0.0872711 -0.00228823 -0.000928084)
(0.0773899 -0.00160132 -0.000188032)
(0.0530868 -0.00264425 -0.000198159)
(0.0765758 -0.00592335 -0.000686121)
(0.082258 -0.00654898 -0.00141003)
(0.0832615 -0.00763104 -0.00135042)
(0.0846004 -0.00732736 -0.00133931)
(0.0865976 -0.00746997 -0.00138644)
(0.0883568 -0.00623331 -0.00126632)
(0.0912368 -0.00566556 -0.00153398)
(0.0885561 -0.0032447 -0.00080818)
(0.0788848 -0.00186902 -3.61751e-05)
(0.0474809 -0.00333566 3.98446e-05)
(0.0737411 -0.0073396 -0.000422444)
(0.0806724 -0.00861071 -0.00114366)
(0.0822975 -0.00974626 -0.00117255)
(0.0840405 -0.0095548 -0.0011541)
(0.0865713 -0.00962831 -0.00120451)
(0.0888748 -0.00830137 -0.00110402)
(0.0922769 -0.00733904 -0.00134027)
(0.0902999 -0.0044946 -0.000657914)
(0.0809394 -0.00226038 0.000151553)
(0.0405236 -0.00399176 0.000357841)
(0.0696636 -0.00897877 -6.11753e-05)
(0.0785332 -0.0111574 -0.000795965)
(0.0810249 -0.0124339 -0.000929679)
(0.0832575 -0.0123917 -0.000917606)
(0.0864358 -0.0124163 -0.000967972)
(0.0894841 -0.0110103 -0.000890517)
(0.0935939 -0.0095854 -0.00109604)
(0.0926157 -0.00616013 -0.00046002)
(0.0837305 -0.00282845 0.000393628)
(0.0321054 -0.00445936 0.000748935)
(0.0638566 -0.0106961 0.000408591)
(0.0755236 -0.0141467 -0.000332962)
(0.0792683 -0.0157904 -0.000590197)
(0.0821221 -0.01598 -0.000604019)
(0.0860673 -0.0160205 -0.000653481)
(0.0901126 -0.0145828 -0.000601034)
(0.0952178 -0.0126429 -0.000776922)
(0.0956482 -0.00843132 -0.00018865)
(0.0875313 -0.00365274 0.000717619)
(0.0223383 -0.00447459 0.00113921)
(0.0558054 -0.0121697 0.000959265)
(0.071051 -0.0173575 0.00026977)
(0.076684 -0.0198456 -0.000106248)
(0.0804006 -0.0204842 -0.000176434)
(0.0852637 -0.020681 -0.000227207)
(0.0906234 -0.0193272 -0.000200057)
(0.0971574 -0.0168783 -0.000348767)
(0.0996053 -0.0116312 0.000190437)
(0.0927343 -0.00488981 0.00116183)
(0.0117475 -0.00361519 0.00129543)
(0.045189 -0.012797 0.00143609)
(0.0642961 -0.0202435 0.0010196)
(0.072646 -0.0244445 0.000606688)
(0.0777029 -0.0260786 0.000431743)
(0.0836791 -0.026728 0.000349448)
(0.0907144 -0.0256923 0.000353813)
(0.0993009 -0.0228729 0.000232379)
(0.104725 -0.0163069 0.000728885)
(0.100129 -0.00676329 0.00177904)
(0.00147835 -0.00110846 0.00124992)
(0.0318893 -0.0116607 0.00157777)
(0.0539311 -0.0218714 0.00176701)
(0.0658499 -0.0290302 0.00161193)
(0.0732204 -0.0327531 0.00135574)
(0.0807825 -0.0345146 0.00116823)
(0.0899517 -0.0342737 0.00111888)
(0.101469 -0.0315504 0.00102493)
(0.111407 -0.0235515 0.00150502)
(0.110772 -0.00999784 0.00267111)
(-0.00301715 0.00220187 0.00207459)
(0.0181181 -0.00776671 0.00214893)
(0.0395187 -0.0208857 0.0027297)
(0.0547563 -0.0325611 0.00290585)
(0.06547 -0.0402349 0.00265731)
(0.0754094 -0.0445077 0.00232051)
(0.0871751 -0.0460015 0.00216831)
(0.10266 -0.0443475 0.00208741)
(0.119317 -0.035406 0.00259499)
(0.128557 -0.0152049 0.0039179)
(-0.00613218 0.000209381 0.000923439)
(-0.000135782 -0.00475293 0.0024117)
(0.0185448 -0.0166854 0.00427045)
(0.0367807 -0.0320205 0.00512364)
(0.0520722 -0.0456193 0.00489282)
(0.0660996 -0.0555637 0.00419075)
(0.0815831 -0.0616466 0.00368255)
(0.102576 -0.0635707 0.0034859)
(0.128646 -0.0565616 0.0041088)
(0.155739 -0.0285033 0.00581382)
(-0.0123526 -0.00433598 -0.0017074)
(-0.0149866 -0.0139104 -0.00189159)
(-0.00489696 -0.0229391 0.000777101)
(0.0105725 -0.0335527 0.00437052)
(0.0274838 -0.0478225 0.00651654)
(0.0456684 -0.0636978 0.00687972)
(0.065268 -0.0794406 0.00624812)
(0.0944539 -0.0896713 0.00557366)
(0.127654 -0.101595 0.00584832)
(0.216937 -0.0471682 0.00847989)
(0.0965591 -0.0106638 0.0017966)
(0.101387 -0.0013443 0.0013392)
(0.100943 -0.00121816 0.00143733)
(0.100667 -0.000458437 0.00141076)
(0.100623 -0.000112752 0.001425)
(0.100624 0.000100647 0.00142497)
(0.100668 0.000447337 0.0014106)
(0.100944 0.00120843 0.00143673)
(0.101391 0.00133329 0.0013388)
(0.096562 0.0107013 0.00180087)
(0.0952116 -0.00527983 0.0025038)
(0.108448 -0.00241681 0.00240536)
(0.106205 -0.00201013 0.00242791)
(0.105 -0.000808427 0.00237809)
(0.104757 -0.000249639 0.00241175)
(0.104758 0.00021378 0.00241198)
(0.105003 0.000774248 0.00237757)
(0.106209 0.00197669 0.002423)
(0.108457 0.0023622 0.00240052)
(0.0952178 0.00533473 0.00250929)
(0.0934631 -0.000177428 0.00252509)
(0.110894 -0.00290593 0.00287985)
(0.108985 -0.00170079 0.00282418)
(0.107401 -0.000705715 0.00275665)
(0.107027 -0.000285586 0.00281787)
(0.10703 0.000212202 0.00281822)
(0.10741 0.000636754 0.00275706)
(0.109002 0.00163989 0.00282683)
(0.1109 0.0028448 0.00287854)
(0.0935067 0.000262323 0.00252981)
(0.091344 0.0023489 0.00247313)
(0.110208 -0.00302218 0.00297959)
(0.109369 -0.00121176 0.00303753)
(0.107919 -0.000582174 0.00302516)
(0.107474 -0.000300101 0.00301181)
(0.107481 0.000185475 0.00301086)
(0.107942 0.00047494 0.00301838)
(0.109396 0.00112397 0.00300961)
(0.11022 0.00294362 0.00297758)
(0.0914395 -0.00229058 0.0024683)
(0.0898236 0.00327177 0.00237175)
(0.108894 -0.00296126 0.00292733)
(0.108861 -0.000835801 0.00299008)
(0.107648 -0.000576694 0.00302782)
(0.107343 -0.000334436 0.00304595)
(0.107359 0.000169737 0.00304549)
(0.107701 0.000414303 0.00302975)
(0.10899 0.000700043 0.00297319)
(0.108932 0.00288718 0.0029393)
(0.0899931 -0.00332431 0.00235507)
(0.0888354 0.00341692 0.00222113)
(0.107814 -0.00289186 0.00284437)
(0.108537 -0.000574005 0.00282458)
(0.107535 -0.000614224 0.00289788)
(0.107249 -0.000348766 0.00300975)
(0.107272 0.000122202 0.00300909)
(0.1076 0.000395137 0.00289846)
(0.108717 0.000372945 0.002851)
(0.107836 0.00274394 0.00280774)
(0.0891644 -0.00356976 0.00219715)
(0.0880568 0.00323064 0.00205479)
(0.106961 -0.00278797 0.00271681)
(0.108334 -0.000362282 0.00270843)
(0.10752 -0.000667873 0.00284474)
(0.107202 -0.000347956 0.00295969)
(0.107233 4.39993e-05 0.00295782)
(0.107618 0.00039322 0.00284071)
(0.108563 9.65633e-05 0.00275594)
(0.107118 0.0027342 0.00282207)
(0.088462 -0.00350928 0.00202476)
(0.0872104 0.00298083 0.00188043)
(0.106352 -0.00287448 0.00276684)
(0.108178 -0.000221944 0.00261916)
(0.107497 -0.000759547 0.0028039)
(0.107157 -0.000345375 0.00288878)
(0.107199 -5.27439e-05 0.00288449)
(0.107624 0.000392169 0.0028587)
(0.108421 -0.000106849 0.00266468)
(0.106164 0.00261748 0.00273019)
(0.0880799 -0.00320053 0.00188027)
(0.0866371 0.00257782 0.00173821)
(0.105407 -0.00288481 0.00272593)
(0.108027 -0.000180882 0.00253407)
(0.107483 -0.000874538 0.00275613)
(0.107119 -0.00034927 0.0028049)
(0.107177 -0.000168429 0.00280182)
(0.107537 0.000380858 0.00276873)
(0.108304 -0.000271709 0.00256627)
(0.105475 0.00247653 0.00261776)
(0.0876796 -0.00287507 0.00174173)
(0.0860639 0.00213012 0.00161787)
(0.104656 -0.0026416 0.00242719)
(0.107875 -0.000173011 0.00244249)
(0.10748 -0.000986478 0.0027074)
(0.107098 -0.000363062 0.00270699)
(0.107169 -0.000317376 0.00270099)
(0.107561 0.000351741 0.00265033)
(0.108217 -0.000392994 0.00246234)
(0.104737 0.00217508 0.00235543)
(0.0875329 -0.00250131 0.00164062)
(0.0852531 0.0018207 0.00149237)
(0.104341 -0.00247372 0.00218919)
(0.107766 -0.000190549 0.00235322)
(0.107477 -0.00111933 0.00264812)
(0.107104 -0.000399674 0.00260478)
(0.107206 -0.000494781 0.0025975)
(0.107641 0.000297048 0.00258018)
(0.108209 -0.000542492 0.00237887)
(0.104498 0.00185205 0.00206602)
(0.0872227 -0.00226182 0.00152441)
(0.0843199 0.00159549 0.00136046)
(0.104172 -0.00249829 0.00211286)
(0.107686 -0.000264364 0.00227214)
(0.107476 -0.00129443 0.00257386)
(0.107129 -0.000471223 0.00250276)
(0.107264 -0.000699579 0.00249993)
(0.107747 0.000222473 0.00251538)
(0.108255 -0.000692643 0.00229773)
(0.104448 0.00169322 0.00197582)
(0.0869321 -0.00212293 0.00139113)
(0.0833005 0.00135155 0.00122542)
(0.103993 -0.00259215 0.00207355)
(0.107609 -0.000394157 0.00219384)
(0.107486 -0.00151063 0.00250753)
(0.107169 -0.000590385 0.00240949)
(0.10734 -0.000940515 0.00240459)
(0.107892 0.000109812 0.00245409)
(0.108352 -0.00086043 0.00221536)
(0.104468 0.00155284 0.00193752)
(0.0867442 -0.00200036 0.00126786)
(0.0821842 0.00109358 0.00109628)
(0.103769 -0.00271326 0.00202446)
(0.107511 -0.000586181 0.00211068)
(0.107478 -0.00177008 0.00244578)
(0.107212 -0.000773646 0.00232162)
(0.107429 -0.0012272 0.00230843)
(0.108066 -5.97403e-05 0.0023966)
(0.108487 -0.00106077 0.00212657)
(0.104559 0.00138176 0.00189968)
(0.0866826 -0.00191379 0.00116271)
(0.0809377 0.000819655 0.000979188)
(0.103472 -0.00287652 0.00196481)
(0.107386 -0.00085486 0.00203403)
(0.107448 -0.00208876 0.00237885)
(0.10726 -0.00103647 0.00223938)
(0.10754 -0.0015749 0.00221795)
(0.108272 -0.000301805 0.00233649)
(0.108681 -0.00130436 0.00203247)
(0.104698 0.00117917 0.00186431)
(0.0867851 -0.00186234 0.00107684)
(0.0795054 0.000516863 0.0008768)
(0.10308 -0.00309875 0.00190056)
(0.107219 -0.00122019 0.00197376)
(0.107393 -0.00248752 0.00230899)
(0.107309 -0.00139979 0.00216927)
(0.107672 -0.00200377 0.00213997)
(0.10852 -0.000636193 0.002279)
(0.108951 -0.00160731 0.00195076)
(0.104931 0.000926669 0.0018261)
(0.0870411 -0.0018357 0.00100994)
(0.0778176 0.00017254 0.000794438)
(0.102571 -0.00340083 0.00183638)
(0.106992 -0.00170724 0.00193051)
(0.107313 -0.00299357 0.0022505)
(0.107356 -0.0018926 0.00211528)
(0.107826 -0.00253735 0.0020711)
(0.108816 -0.00108693 0.00222663)
(0.109307 -0.00198756 0.0018903)
(0.105286 0.000606541 0.001788)
(0.0874866 -0.00183457 0.000962218)
(0.0757884 -0.00022522 0.000737918)
(0.101909 -0.00381152 0.00178243)
(0.106691 -0.00234812 0.00190352)
(0.107195 -0.00363997 0.00220867)
(0.1074 -0.00255128 0.00207796)
(0.108015 -0.00320866 0.00201831)
(0.109179 -0.00168348 0.00218064)
(0.109773 -0.00247117 0.00184348)
(0.105807 0.000200811 0.00175802)
(0.0881671 -0.00186596 0.000938145)
(0.0733195 -0.000688339 0.00071489)
(0.101043 -0.00436554 0.00175368)
(0.106304 -0.00318609 0.00190307)
(0.107034 -0.00447056 0.0021871)
(0.107443 -0.00341896 0.00206046)
(0.108247 -0.00405979 0.00198713)
(0.109634 -0.002467 0.00215333)
(0.110391 -0.00309418 0.0018189)
(0.106545 -0.000312824 0.0017424)
(0.0891447 -0.00193888 0.000944814)
(0.0703021 -0.00122708 0.000743335)
(0.0998889 -0.00509597 0.00176623)
(0.105812 -0.00427103 0.00193262)
(0.106826 -0.00553906 0.00219826)
(0.107491 -0.00455075 0.00207704)
(0.108539 -0.00514517 0.00198452)
(0.110202 -0.00349274 0.00215117)
(0.111199 -0.00390232 0.00182222)
(0.107572 -0.000968996 0.00175039)
(0.0905019 -0.00206619 0.000990025)
(0.0666037 -0.00184742 0.000850876)
(0.0983409 -0.00603502 0.00184007)
(0.105201 -0.00566365 0.00201252)
(0.106565 -0.0069127 0.00225495)
(0.10754 -0.0060164 0.0021381)
(0.108906 -0.00653708 0.00202201)
(0.110916 -0.00483326 0.00218139)
(0.112263 -0.00496066 0.00186415)
(0.108978 -0.00181345 0.00179361)
(0.0923534 -0.00226434 0.00108609)
(0.0620872 -0.00254579 0.00107025)
(0.0962499 -0.00720239 0.00200126)
(0.104419 -0.00743132 0.00216548)
(0.106237 -0.00867138 0.00237123)
(0.107589 -0.00790047 0.00225985)
(0.109361 -0.00833115 0.00211728)
(0.111814 -0.00658663 0.00225927)
(0.113651 -0.0063614 0.00195804)
(0.110887 -0.00291501 0.00188985)
(0.094855 -0.00256171 0.0012506)
(0.0565972 -0.0032857 0.00142725)
(0.0934215 -0.00859648 0.00228146)
(0.103389 -0.00963845 0.00242417)
(0.105827 -0.0109097 0.00256999)
(0.107621 -0.0103102 0.00246922)
(0.109907 -0.0106548 0.00229607)
(0.112937 -0.00889108 0.00240704)
(0.115462 -0.00824073 0.00212455)
(0.113462 -0.00437691 0.00206194)
(0.0982303 -0.00300108 0.00151005)
(0.0499858 -0.00398457 0.00192491)
(0.0895784 -0.0101852 0.002716)
(0.101953 -0.0123156 0.00281762)
(0.105287 -0.0137369 0.00289269)
(0.107593 -0.0133789 0.00279369)
(0.110521 -0.0136796 0.00259182)
(0.114316 -0.0119439 0.00265929)
(0.117806 -0.010809 0.0023987)
(0.116935 -0.00636327 0.00234617)
(0.10281 -0.00365274 0.00190147)
(0.0421537 -0.00449631 0.00250197)
(0.0843186 -0.0118364 0.00329706)
(0.0998318 -0.0154166 0.00338537)
(0.104498 -0.0172616 0.00340057)
(0.107435 -0.0172733 0.00328148)
(0.111144 -0.0176339 0.00304614)
(0.115954 -0.0160297 0.00305896)
(0.120805 -0.0143956 0.00282083)
(0.121627 -0.00915997 0.00279278)
(0.109082 -0.00465754 0.00248227)
(0.033121 -0.00455907 0.00297056)
(0.0771929 -0.0132528 0.00394952)
(0.0965487 -0.0187384 0.00416344)
(0.103205 -0.0215496 0.00416929)
(0.106988 -0.0222124 0.00400815)
(0.111628 -0.0228352 0.00371976)
(0.117771 -0.0215686 0.00366359)
(0.12455 -0.0195353 0.00344843)
(0.127972 -0.0132553 0.00347204)
(0.117975 -0.00620148 0.00333208)
(0.0231663 -0.00382006 0.00302704)
(0.0676142 -0.0139267 0.00442187)
(0.0912618 -0.0218145 0.00513083)
(0.100897 -0.026506 0.00530975)
(0.106005 -0.0284124 0.00507809)
(0.111756 -0.0296926 0.00468352)
(0.119609 -0.0291556 0.00453275)
(0.129101 -0.0271087 0.00434778)
(0.136618 -0.0196352 0.00448233)
(0.130711 -0.00897547 0.00458043)
(0.0139698 -0.00177871 0.00316934)
(0.0558847 -0.0131267 0.00489763)
(0.0831222 -0.0239969 0.00632285)
(0.096665 -0.0318452 0.00687562)
(0.103907 -0.0360688 0.0065921)
(0.111018 -0.0387316 0.00600052)
(0.120874 -0.0396249 0.00568949)
(0.134043 -0.0385061 0.00553545)
(0.14782 -0.0302609 0.00589648)
(0.151543 -0.0134546 0.00637281)
(0.00807432 -0.00022137 0.00343835)
(0.0424052 -0.0107433 0.00576891)
(0.0712407 -0.024064 0.00787781)
(0.0892989 -0.0362133 0.00894729)
(0.100029 -0.0446688 0.00864265)
(0.109158 -0.0504197 0.00773295)
(0.121225 -0.054073 0.0071355)
(0.139175 -0.0557791 0.00697205)
(0.162135 -0.0491102 0.00782643)
(0.183021 -0.025449 0.00892793)
(0.00515055 -0.00249094 0.000682076)
(0.029426 -0.0108649 0.00482747)
(0.0564608 -0.0242823 0.00803126)
(0.0773132 -0.0388931 0.00985283)
(0.0918473 -0.0519893 0.00998782)
(0.104017 -0.0631907 0.00903244)
(0.117618 -0.0733605 0.00811322)
(0.141694 -0.080905 0.00784755)
(0.170865 -0.0899551 0.00929463)
(0.249865 -0.0419573 0.0122517)
(0.0959633 -0.0110695 0.00134125)
(0.100943 -0.00144199 0.00121237)
(0.100645 -0.00115327 0.00114789)
(0.100403 -0.000455461 0.00115819)
(0.100362 -0.000111803 0.00116327)
(0.100363 0.000101014 0.0011632)
(0.100404 0.000445638 0.00115801)
(0.100646 0.00114458 0.00114766)
(0.100947 0.00143253 0.00121247)
(0.0959656 0.0111198 0.00134264)
(0.0938001 -0.00569973 0.00193173)
(0.106205 -0.00243538 0.00199609)
(0.103694 -0.001919 0.00190622)
(0.102513 -0.000800198 0.00191814)
(0.102277 -0.000242779 0.00192339)
(0.102278 0.000211237 0.00192337)
(0.102517 0.000770837 0.00191757)
(0.1037 0.00188724 0.00190441)
(0.106219 0.00237526 0.00199634)
(0.0938036 0.00575458 0.00193197)
(0.0921365 -0.000426948 0.00159698)
(0.108994 -0.002862 0.00166721)
(0.106117 -0.00162656 0.00159843)
(0.104454 -0.000674606 0.00161043)
(0.104102 -0.000276554 0.00161802)
(0.104107 0.000207251 0.00161738)
(0.104466 0.000610508 0.0016092)
(0.106127 0.00157079 0.00159872)
(0.108994 0.00280031 0.00166804)
(0.0921892 0.000494509 0.00159372)
(0.090617 0.00228896 0.00113863)
(0.109348 -0.00302973 0.00117451)
(0.10725 -0.00112872 0.00108769)
(0.105591 -0.000531781 0.00110088)
(0.105232 -0.000300375 0.00110972)
(0.105241 0.000188366 0.00110953)
(0.105614 0.000425839 0.00110008)
(0.107277 0.00103887 0.00108408)
(0.109356 0.00295665 0.00117309)
(0.0907266 -0.00225474 0.00112856)
(0.0897854 0.00338058 0.000748613)
(0.108965 -0.00301702 0.000768108)
(0.107823 -0.000698217 0.000643128)
(0.106301 -0.000503999 0.000683264)
(0.105907 -0.00033109 0.000684785)
(0.10592 0.000168506 0.000684889)
(0.106334 0.000350676 0.000681821)
(0.107859 0.000561693 0.000631689)
(0.108997 0.00293255 0.000767348)
(0.0899683 -0.00345194 0.000734318)
(0.0893967 0.00370774 0.000416881)
(0.108679 -0.00294352 0.000465824)
(0.108321 -0.000348938 0.000265441)
(0.106902 -0.000535372 0.000329041)
(0.106455 -0.000339037 0.00033225)
(0.106473 0.00011665 0.000330913)
(0.106949 0.0003313 0.000323841)
(0.10837 0.000156727 0.000249845)
(0.108709 0.00281836 0.000461106)
(0.0897072 -0.00386241 0.000407282)
(0.0891183 0.00370048 0.000165266)
(0.108481 -0.00288328 0.000218179)
(0.108795 -7.36292e-05 -4.36757e-05)
(0.107462 -0.00060134 3.71742e-05)
(0.106978 -0.000326725 3.28911e-05)
(0.107003 3.17531e-05 3.03735e-05)
(0.107528 0.000339857 2.7886e-05)
(0.10888 -0.000178722 -5.70727e-05)
(0.108558 0.0027222 0.000211733)
(0.0895709 -0.00394297 0.000138284)
(0.0888067 0.00355253 -4.12712e-05)
(0.108305 -0.00282474 3.70374e-05)
(0.109225 0.000116713 -0.000276346)
(0.107961 -0.000702684 -0.00018759)
(0.107458 -0.000306783 -0.000208518)
(0.107494 -7.67632e-05 -0.000212447)
(0.108067 0.000362586 -0.000193179)
(0.109369 -0.000459238 -0.000300242)
(0.108384 0.00262116 5.25984e-05)
(0.0894838 -0.00382954 -5.90576e-05)
(0.0884462 0.00333376 -0.000187824)
(0.108135 -0.00275797 -5.56531e-05)
(0.109622 0.000241643 -0.000455274)
(0.108396 -0.000829436 -0.000352756)
(0.107886 -0.00029118 -0.000390931)
(0.107938 -0.000217552 -0.000397548)
(0.108554 0.000377726 -0.000339459)
(0.109829 -0.000688816 -0.000485919)
(0.108203 0.00244447 -5.16984e-05)
(0.0894567 -0.00361921 -0.000185026)
(0.0880644 0.00307013 -0.000234511)
(0.107972 -0.00271027 -0.000132792)
(0.109986 0.00032688 -0.000611638)
(0.108785 -0.000965756 -0.000475836)
(0.108279 -0.000288455 -0.000527943)
(0.108348 -0.000389587 -0.000535278)
(0.108998 0.000374147 -0.000456786)
(0.110274 -0.000885546 -0.000636251)
(0.108098 0.00229608 -9.93527e-05)
(0.0894136 -0.00341438 -0.000241845)
(0.087651 0.0028122 -0.000239623)
(0.107833 -0.00269549 -0.000205247)
(0.110306 0.000349563 -0.000731379)
(0.109138 -0.0011186 -0.000566529)
(0.108649 -0.000306866 -0.000632911)
(0.108741 -0.000584543 -0.000642309)
(0.109415 0.000340495 -0.000547842)
(0.110699 -0.00106328 -0.000751938)
(0.108004 0.00210051 -0.000140549)
(0.0894936 -0.00313744 -0.000249695)
(0.0871751 0.00256014 -0.000252382)
(0.107701 -0.00268942 -0.000248924)
(0.11059 0.00030085 -0.000810041)
(0.109457 -0.00129965 -0.000630742)
(0.108998 -0.000357941 -0.00071231)
(0.109121 -0.000805993 -0.000723213)
(0.109821 0.00026973 -0.000610947)
(0.111115 -0.00124426 -0.000830502)
(0.108054 0.00185621 -0.000178785)
(0.0895398 -0.00290364 -0.000259503)
(0.086586 0.00230098 -0.00026578)
(0.107587 -0.0026914 -0.000277913)
(0.110836 0.000192902 -0.000860447)
(0.109745 -0.00151173 -0.000675678)
(0.109329 -0.000455806 -0.000771051)
(0.109492 -0.00106004 -0.00078319)
(0.110225 0.000160248 -0.00065417)
(0.111542 -0.00143883 -0.000888614)
(0.108227 0.00163157 -0.000216914)
(0.089592 -0.00274428 -0.000266163)
(0.085846 0.00203651 -0.000276295)
(0.107477 -0.00274422 -0.000295733)
(0.111042 2.46761e-05 -0.000893049)
(0.110004 -0.00176434 -0.000702815)
(0.109642 -0.000614977 -0.000811339)
(0.109857 -0.00135516 -0.000826354)
(0.110633 2.93739e-07 -0.000681297)
(0.111992 -0.00165599 -0.000932722)
(0.108498 0.0014171 -0.000249694)
(0.0896913 -0.00263965 -0.000267568)
(0.0849456 0.00175043 -0.000281236)
(0.107327 -0.00285528 -0.000297141)
(0.111202 -0.00021895 -0.000911653)
(0.110233 -0.00207276 -0.000716324)
(0.10994 -0.000850617 -0.000836927)
(0.110223 -0.00170517 -0.000856249)
(0.111058 -0.000227164 -0.000696134)
(0.112476 -0.00190546 -0.000964973)
(0.108856 0.00118978 -0.00027155)
(0.0898799 -0.00257437 -0.00026488)
(0.0838283 0.00143409 -0.000275176)
(0.107125 -0.00303055 -0.000285296)
(0.111304 -0.000556216 -0.000912761)
(0.110432 -0.00245437 -0.00071833)
(0.110224 -0.00118279 -0.000848411)
(0.110596 -0.00212813 -0.000873237)
(0.111509 -0.000540838 -0.000701038)
(0.113007 -0.00220368 -0.000988006)
(0.109302 0.000926692 -0.000283831)
(0.090201 -0.00253698 -0.000253389)
(0.0824388 0.00107565 -0.000253153)
(0.106841 -0.00329293 -0.000257867)
(0.111344 -0.00100799 -0.000897396)
(0.110599 -0.00293449 -0.000708936)
(0.110498 -0.00163905 -0.000844473)
(0.110984 -0.00264719 -0.000877163)
(0.112002 -0.000963404 -0.000695661)
(0.113604 -0.00257075 -0.00100015)
(0.109858 0.000601848 -0.000288578)
(0.0906958 -0.0025182 -0.000229985)
(0.0807012 0.000661263 -0.000209534)
(0.106447 -0.00366276 -0.00021065)
(0.111312 -0.00160662 -0.000859052)
(0.110734 -0.00354293 -0.000684375)
(0.110765 -0.00225261 -0.00082272)
(0.111397 -0.00329218 -0.00086743)
(0.112552 -0.00152399 -0.000679429)
(0.114288 -0.00303245 -0.000999506)
(0.110569 0.000201322 -0.000286741)
(0.0914022 -0.00253064 -0.000192547)
(0.0785289 0.000176691 -0.000137761)
(0.105897 -0.00415546 -0.000136772)
(0.111201 -0.00238844 -0.000791238)
(0.110836 -0.00431688 -0.000640003)
(0.111028 -0.00306318 -0.000779745)
(0.111846 -0.0041007 -0.000839972)
(0.113181 -0.0022597 -0.000649913)
(0.115093 -0.00362029 -0.000983911)
(0.111482 -0.00029374 -0.000274391)
(0.0923845 -0.00258288 -0.000138618)
(0.0757987 -0.00037846 -2.61805e-05)
(0.105148 -0.00480938 -2.38272e-05)
(0.111001 -0.00340044 -0.000683406)
(0.110901 -0.00530228 -0.00056791)
(0.111291 -0.00412068 -0.000709398)
(0.112345 -0.00512285 -0.000789456)
(0.113916 -0.00322076 -0.00060089)
(0.116059 -0.0043765 -0.000947138)
(0.112658 -0.000916826 -0.000247161)
(0.0937241 -0.00268642 -6.32601e-05)
(0.0724225 -0.00100601 0.000147788)
(0.104096 -0.00565688 0.000147198)
(0.110699 -0.00469633 -0.000523868)
(0.110929 -0.0065577 -0.000456949)
(0.111558 -0.00548673 -0.00060124)
(0.112909 -0.00642404 -0.000706737)
(0.11479 -0.00447389 -0.000525078)
(0.117243 -0.00535935 -0.000882694)
(0.114181 -0.00171326 -0.000198633)
(0.095534 -0.00285495 4.1763e-05)
(0.0682935 -0.00169384 0.00041926)
(0.102616 -0.00671846 0.000400006)
(0.110272 -0.00633366 -0.000294208)
(0.110919 -0.00815118 -0.000291203)
(0.11183 -0.00723472 -0.000441925)
(0.113552 -0.00808853 -0.00057894)
(0.11584 -0.00610896 -0.000411494)
(0.11871 -0.00665181 -0.000778951)
(0.116164 -0.00274634 -0.000118918)
(0.0979654 -0.00311438 0.000188488)
(0.063365 -0.00241987 0.000820167)
(0.10053 -0.00798272 0.000764987)
(0.109673 -0.00835882 3.23893e-05)
(0.110864 -0.0101585 -4.84863e-05)
(0.112105 -0.009451 -0.000211742)
(0.114282 -0.0102253 -0.000386959)
(0.117103 -0.00824934 -0.000244275)
(0.120549 -0.00837595 -0.000621174)
(0.118762 -0.00411284 6.34365e-06)
(0.101237 -0.00350033 0.000393621)
(0.057589 -0.00311935 0.00137032)
(0.0976614 -0.00941975 0.00127924)
(0.10882 -0.0107944 0.000492913)
(0.110748 -0.0126607 0.000304299)
(0.112364 -0.0122382 0.000116859)
(0.11509 -0.0129755 -0.000105571)