/*--------------------------------*- C++ -*----------------------------------*\
| =========                 |                                                 |
| \\      /  F ield         | OpenFOAM: The Open Source CFD Toolbox           |
|  \\    /   O peration     | Version:  4.1                                   |
|   \\  /    A nd           | Web:      www.OpenFOAM.org                      |
|    \\/     M anipulation  |                                                 |
\*---------------------------------------------------------------------------*/
FoamFile
{
    version     2.0;
    format      ascii;
    class       volScalarField;
    location    "75";
    object      T;
}
// * * * * * * * * * * * * * * * * * * * * * * * * * * * * * * * * * * * * * //

dimensions      [0 0 0 1 0 0 0];

internalField   nonuniform List<scalar> 
12000
(
0.999583
1.00358
0.999807
1.00054
1.00055
1.00055
1.00053
0.999806
1.00359
0.999558
0.994979
0.996274
0.99554
0.996991
0.997021
0.997014
0.996979
0.995539
0.996307
0.994933
0.999372
0.994202
0.997396
0.998257
0.998159
0.998157
0.99825
0.997414
0.994232
0.999302
1.00385
0.995572
1.00083
1.00049
1.00029
1.00027
1.00049
1.00085
0.99556
1.00374
1.00496
0.996286
1.00237
1.00118
1.00117
1.00107
1.00118
1.00239
0.996229
1.00482
1.00441
0.996219
1.0025
1.00085
1.00118
1.00107
1.00085
1.00249
0.996173
1.00423
1.00371
0.996266
1.00232
1.00037
1.00095
1.00093
1.00035
1.00228
0.996255
1.00349
1.00314
0.996556
1.00214
0.999989
1.00075
1.00079
0.999954
1.00209
0.996577
1.00289
1.00259
0.996884
1.00192
0.999662
1.00054
1.00062
0.999612
1.00184
0.996919
1.00231
1.00208
0.997164
1.00163
0.999363
1.00033
1.00042
0.999312
1.00155
0.997198
1.00175
1.00166
0.997373
1.00134
0.999144
1.00014
1.00023
0.999067
1.00125
0.997411
1.00127
1.00135
0.997551
1.0011
0.999011
0.999983
1.00009
0.998896
1.00101
0.997585
1.0009
1.00117
0.997754
1.0009
0.998942
0.999873
0.999988
0.998807
1.00081
0.997746
1.00064
1.00109
0.997946
1.00075
0.998924
0.999801
0.999921
0.998775
1.00065
0.997891
1.00043
1.00108
0.99813
1.00065
0.998945
0.999761
0.999883
0.998784
1.00053
0.998022
1.00025
1.00117
0.998319
1.00058
0.998998
0.999745
0.999871
0.998822
1.00043
0.998139
1.0001
1.00134
0.998516
1.00052
0.999074
0.999749
0.999879
0.998878
1.00035
0.998239
0.999982
1.00159
0.998739
1.00048
0.999166
0.99977
0.999905
0.998952
1.0003
0.998319
0.999873
1.0019
0.999017
1.00043
0.999269
0.99981
0.999952
0.999046
1.00026
0.998377
0.999773
1.00223
0.999394
1.00035
0.999378
0.999869
1.00003
0.999159
1.00026
0.998413
0.999667
1.00249
0.999869
1.00022
0.99947
0.999941
1.00015
0.999296
1.00029
0.998418
0.999531
1.00246
1.00038
0.999995
0.9995
1.00001
1.00029
0.999461
1.00033
0.998375
0.999319
1.00179
1.00076
0.999587
0.99936
1.00001
1.00042
0.999648
1.00038
0.998246
0.99894
0.999846
1.00051
0.998815
0.998845
0.999756
1.00043
0.999808
1.00042
0.99797
0.998234
0.995511
0.998488
0.997098
0.997468
0.998848
1.00004
0.999822
1.00042
0.997466
0.996811
0.986447
0.992388
0.993134
0.994264
0.996436
0.998639
0.99931
1.00027
0.996711
0.994154
0.966893
0.977913
0.984083
0.987253
0.99099
0.99508
0.997638
0.99991
0.996269
0.988652
0.94159
0.958686
0.968898
0.974188
0.980086
0.986874
0.992585
0.997836
0.998118
0.98171
0.908455
0.928964
0.942674
0.951081
0.960738
0.971551
0.982831
0.992956
1.00972
0.973562
0.852679
0.870094
0.891571
0.908612
0.923649
0.937171
0.954167
0.965702
1.03337
1.02577
1.00359
1.00675
1.00301
1.00391
1.00387
1.00387
1.00391
1.00301
1.00679
1.00354
0.996298
0.996863
0.996392
0.998265
0.998221
0.998219
0.99825
0.996387
0.996959
0.99624
0.994235
0.98974
0.992956
0.993843
0.993639
0.993629
0.993825
0.99297
0.989826
0.994131
0.995617
0.987826
0.993448
0.992816
0.99245
0.99245
0.992795
0.993474
0.987909
0.995468
0.996341
0.987434
0.994339
0.992675
0.992441
0.992501
0.992655
0.994364
0.987536
0.996152
0.996289
0.987519
0.994654
0.992459
0.992628
0.99271
0.992432
0.994668
0.987594
0.9961
0.996358
0.988187
0.994892
0.992426
0.993038
0.993084
0.992389
0.994891
0.988212
0.996185
0.996679
0.989334
0.995353
0.992736
0.993675
0.993693
0.992687
0.995322
0.989299
0.996501
0.997048
0.990589
0.995896
0.993258
0.994389
0.994402
0.993189
0.995847
0.990509
0.996832
0.997382
0.991706
0.996379
0.99382
0.995045
0.995067
0.993727
0.996308
0.991606
0.997084
0.997659
0.992694
0.996788
0.994352
0.995607
0.995644
0.994246
0.996688
0.992571
0.997263
0.99792
0.993585
0.997137
0.994859
0.996091
0.996143
0.994747
0.997011
0.993425
0.997413
0.998232
0.99434
0.997447
0.99535
0.996512
0.996581
0.995217
0.997297
0.994152
0.997556
0.998558
0.994991
0.997732
0.995818
0.996883
0.99697
0.995658
0.997555
0.994768
0.997682
0.9989
0.995569
0.997979
0.996256
0.997209
0.997315
0.996067
0.997782
0.99528
0.997811
0.999266
0.996088
0.9982
0.996663
0.997498
0.997622
0.996445
0.997982
0.995692
0.997947
0.999648
0.996575
0.9984
0.997036
0.997757
0.997897
0.996792
0.998168
0.996032
0.998049
1.00003
0.997047
0.998577
0.997373
0.997987
0.998146
0.997109
0.998341
0.996307
0.998101
1.0004
0.997509
0.998715
0.99767
0.998189
0.998369
0.997392
0.998496
0.996514
0.998092
1.00073
0.997952
0.998783
0.997909
0.99836
0.998563
0.997639
0.998619
0.996645
0.99801
1.00091
0.998381
0.998757
0.998068
0.998486
0.998722
0.997846
0.998694
0.996675
0.997822
1.00076
0.998761
0.998607
0.998104
0.998539
0.998826
0.997997
0.998705
0.996565
0.997469
1.00006
0.998954
0.998246
0.997941
0.99846
0.998836
0.998067
0.998626
0.996258
0.996841
0.998359
0.99865
0.997509
0.997399
0.998098
0.998652
0.998003
0.998411
0.995661
0.995753
0.994748
0.997087
0.995965
0.996105
0.997145
0.998069
0.997702
0.998017
0.994653
0.993791
0.987301
0.992567
0.992599
0.993264
0.994928
0.996595
0.99687
0.997361
0.993177
0.99042
0.972493
0.981798
0.985202
0.987347
0.990277
0.993373
0.995024
0.996432
0.991639
0.983953
0.948812
0.963004
0.971297
0.976022
0.981018
0.986349
0.990445
0.994213
0.992083
0.975674
0.912293
0.931819
0.946342
0.955803
0.964457
0.973062
0.981536
0.989156
1.00069
0.964453
0.861265
0.881153
0.90116
0.918202
0.932703
0.944818
0.958724
0.967504
1.02416
1.00579
0.999819
1.00301
0.998896
0.999618
0.999577
0.999576
0.999614
0.998897
1.00306
0.999753
0.99557
0.996402
0.996001
0.997902
0.997907
0.9979
0.997879
0.995984
0.996495
0.9955
0.997443
0.992971
0.996511
0.997542
0.997367
0.997353
0.997516
0.99653
0.993067
0.997308
1.00089
0.993464
0.999435
0.998787
0.998441
0.998433
0.998761
0.999463
0.993525
1.00074
1.00244
0.994355
1.00165
0.999837
0.999728
0.999735
0.999809
1.00167
0.99438
1.00229
1.00257
0.994671
1.00229
0.999948
1.00038
1.00037
0.999918
1.0023
0.99466
1.00242
1.0024
0.994906
1.00219
0.999594
1.00053
1.00051
0.999563
1.00219
0.994867
1.00223
1.00224
0.995356
1.00201
0.999272
1.00055
1.00052
0.999244
1.00201
0.995289
1.00204
1.00203
0.995891
1.00186
0.999089
1.00056
1.00054
0.999053
1.00184
0.995789
1.00183
1.00177
0.996365
1.00168
0.998968
1.00052
1.00052
0.998915
1.00164
0.996242
1.00153
1.00152
0.996758
1.00145
0.998866
1.00043
1.00046
0.9988
1.00139
0.996626
1.0012
1.00133
0.99709
1.00121
0.998798
1.00032
1.00036
0.998716
1.00114
0.996951
1.00092
1.00122
0.997367
1.001
0.998771
1.0002
1.00026
0.99867
1.00091
0.997232
1.00068
1.00116
0.997618
1.00082
0.99878
1.00009
1.00017
0.998657
1.0007
0.99747
1.00049
1.00117
0.997839
1.00065
0.998813
0.999987
1.0001
0.998669
1.00052
0.997663
1.00032
1.00125
0.998036
1.0005
0.99886
0.999902
1.00003
0.998697
1.00037
0.997817
1.00017
1.00138
0.998227
1.00037
0.998919
0.999831
0.999981
0.998739
1.00025
0.997941
1.00002
1.00156
0.998429
1.00025
0.998983
0.999774
0.999943
0.998787
1.00015
0.998038
0.999867
1.00175
0.998649
1.00013
0.999042
0.99973
0.999918
0.99884
1.00008
0.998102
0.999692
1.00192
0.998885
0.999997
0.999078
0.999688
0.999901
0.99889
1
0.998112
0.999487
1.00198
0.999132
0.999802
0.999068
0.999634
0.999882
0.998929
0.999928
0.998048
0.999214
1.00178
0.999352
0.999506
0.998967
0.999542
0.999845
0.998947
0.999828
0.997875
0.998814
1.00104
0.999405
0.999025
0.998695
0.999353
0.999757
0.998921
0.999679
0.997539
0.998177
0.999289
0.998969
0.998188
0.998091
0.99894
0.999535
0.998813
0.999444
0.996954
0.997124
0.995697
0.997363
0.9966
0.996833
0.998045
0.999013
0.99855
0.999104
0.99601
0.995252
0.988878
0.993261
0.993405
0.994283
0.996145
0.997815
0.997921
0.99863
0.994671
0.992048
0.976654
0.984589
0.987099
0.989331
0.992376
0.995322
0.996622
0.998156
0.993435
0.985887
0.957138
0.969067
0.975504
0.980172
0.985139
0.990051
0.993433
0.997074
0.994562
0.978005
0.927932
0.943689
0.955582
0.964602
0.972763
0.980453
0.98762
0.994634
1.00506
0.967686
0.885607
0.903817
0.921977
0.937105
0.949496
0.959435
0.970953
0.977891
1.03284
1.00954
1.00055
1.00392
0.999619
1.00039
1.00036
1.00036
1.00039
0.999617
1.00397
1.00048
0.997023
0.998278
0.997906
1.00002
1.00004
1.00003
0.999995
0.997886
0.998374
0.996951
0.998313
0.993861
0.997549
0.998832
0.998652
0.998637
0.998803
0.997569
0.993956
0.998164
1.00058
0.992831
0.99879
0.998236
0.997847
0.997835
0.998211
0.998818
0.99288
1.00041
1.00126
0.992704
0.999842
0.997964
0.997795
0.997792
0.99794
0.999865
0.992719
1.00109
1.00093
0.992491
0.999946
0.997422
0.997786
0.997792
0.997396
0.99996
0.99251
1.00072
1.00047
0.992435
0.999585
0.996721
0.997589
0.997602
0.996691
0.99958
0.992455
1.00023
1.0001
0.992728
0.999262
0.996193
0.997394
0.997415
0.996157
0.999234
0.992718
0.999864
0.99978
0.993226
0.999074
0.995934
0.997323
0.997358
0.995888
0.999031
0.993192
0.999526
0.999513
0.993763
0.998947
0.995863
0.997339
0.997392
0.995799
0.998886
0.99372
0.999197
0.999327
0.994278
0.998843
0.995901
0.997388
0.997459
0.995812
0.998765
0.994232
0.998924
0.999234
0.994774
0.998772
0.996022
0.997458
0.997547
0.995908
0.998683
0.994723
0.998719
0.999235
0.99525
0.998743
0.99621
0.997553
0.997663
0.996072
0.998645
0.995179
0.998585
0.999316
0.995703
0.998748
0.996447
0.997673
0.997804
0.996284
0.99864
0.99559
0.998522
0.999464
0.996128
0.998775
0.996712
0.997809
0.99796
0.996524
0.998656
0.995951
0.998506
0.999668
0.996532
0.99882
0.99699
0.997951
0.998121
0.996774
0.998692
0.996272
0.998503
0.999917
0.99692
0.998875
0.99727
0.998097
0.998285
0.997026
0.998745
0.996556
0.998495
1.0002
0.997296
0.998926
0.99754
0.998243
0.998447
0.997272
0.998806
0.996793
0.998473
1.00051
0.997669
0.998962
0.997789
0.998382
0.998603
0.997504
0.998868
0.996975
0.998422
1.00079
0.998045
0.998961
0.997999
0.998508
0.998747
0.997716
0.998923
0.997089
0.998322
1.00098
0.998424
0.998898
0.998146
0.998607
0.998875
0.997902
0.998959
0.997114
0.998137
1.00094
0.998769
0.99874
0.998194
0.99866
0.998973
0.998052
0.998961
0.997018
0.997815
1.00043
0.998975
0.998417
0.998079
0.998627
0.999022
0.998159
0.99891
0.996754
0.997255
0.999029
0.998766
0.997795
0.997672
0.998411
0.99897
0.998205
0.998795
0.996252
0.996294
0.996023
0.997552
0.996547
0.996731
0.99783
0.99871
0.998167
0.998641
0.995441
0.99457
0.990232
0.994238
0.993992
0.994776
0.996504
0.997991
0.997931
0.9985
0.994358
0.99162
0.979868
0.987117
0.988927
0.99098
0.993811
0.996392
0.997345
0.998643
0.993638
0.985978
0.96285
0.973865
0.979346
0.983774
0.988363
0.992611
0.995333
0.998571
0.99565
0.978827
0.936538
0.951381
0.962354
0.970956
0.978391
0.984967
0.991057
0.997471
1.00756
0.970001
0.897367
0.915145
0.932732
0.946632
0.957176
0.965122
0.975079
0.981075
1.03633
1.01232
1.00057
1.00387
0.999579
1.00036
1.00032
1.00032
1.00035
0.999575
1.00393
1.0005
0.997055
0.998238
0.997916
1.00005
1.00006
1.00005
1.00002
0.997895
0.998342
0.996983
0.998222
0.993664
0.997382
0.998663
0.998457
0.998441
0.998629
0.997401
0.993764
0.998076
1.00035
0.992506
0.99847
0.997865
0.997436
0.997422
0.997836
0.998493
0.992547
1.00019
1.00116
0.992564
0.999768
0.997822
0.997618
0.997612
0.997794
0.999784
0.992567
1.001
1.00116
0.992774
1.0004
0.997822
0.998182
0.998182
0.997792
1.0004
0.99277
1.00096
1.00099
0.993158
1.00054
0.997635
0.998539
0.998544
0.997599
1.00051
0.993131
1.00079
1.00084
0.993764
1.00054
0.997455
0.998724
0.998738
0.997409
1.0005
0.993697
1.00065
1.0007
0.99444
1.00054
0.997399
0.998881
0.99891
0.997341
1.00049
0.994359
1.00047
1.00055
0.995066
1.0005
0.997432
0.999018
0.999066
0.997354
1.00044
0.994984
1.00026
1.00043
0.995602
1.00041
0.997495
0.999103
0.999172
0.997394
1.00035
0.995532
1.00004
1.00035
0.996067
1.00029
0.997578
0.999141
0.999233
0.997454
1.00024
0.995997
0.999853
1.00033
0.996479
1.00019
0.99769
0.999161
0.999274
0.997542
1.00013
0.996384
0.999723
1.00035
0.996848
1.0001
0.997828
0.999179
0.999316
0.997658
1.00003
0.996714
0.999623
1.00043
0.997177
1.00002
0.997982
0.9992
0.999359
0.99779
0.999948
0.996996
0.999539
1.00057
0.997475
0.999946
0.998141
0.999221
0.999402
0.997928
0.999875
0.997236
0.999459
1.00075
0.997753
0.999881
0.9983
0.999243
0.999444
0.998066
0.999816
0.997436
0.999377
1.00096
0.99802
0.999817
0.998452
0.999265
0.999484
0.9982
0.999769
0.997592
0.999282
1.00119
0.99829
0.999743
0.998587
0.999283
0.999521
0.998326
0.999729
0.997698
0.999161
1.00141
0.998573
0.999645
0.998693
0.999295
0.999554
0.998438
0.999689
0.997743
0.998995
1.00155
0.998874
0.999501
0.998751
0.999291
0.999579
0.998531
0.999638
0.997709
0.998754
1.00148
0.99917
0.999279
0.99873
0.999257
0.999588
0.9986
0.999562
0.997563
0.998384
1.00102
0.999364
0.998915
0.998571
0.999156
0.999565
0.998642
0.99945
0.997259
0.997789
0.99975
0.999207
0.998284
0.998157
0.99891
0.99947
0.998644
0.999293
0.996735
0.99681
0.997009
0.998157
0.997088
0.997267
0.998358
0.999217
0.998601
0.999128
0.99593
0.995095
0.991676
0.995198
0.994707
0.995462
0.997158
0.998585
0.998417
0.999023
0.994891
0.992189
0.981989
0.988695
0.990014
0.99196
0.994716
0.99717
0.997953
0.999248
0.994254
0.9866
0.965586
0.976169
0.981008
0.98521
0.989643
0.993668
0.996131
0.999291
0.996366
0.979463
0.939552
0.954263
0.964676
0.972919
0.980066
0.986318
0.99207
0.998288
1.00836
0.970377
0.900924
0.918683
0.93598
0.949295
0.959271
0.96673
0.976309
0.981919
1.03727
1.01252
1.00057
1.00387
0.999579
1.00036
1.00032
1.00032
1.00035
0.999576
1.00393
1.0005
0.997054
0.998237
0.997915
1.00005
1.00006
1.00004
1.00002
0.997895
0.998339
0.99698
0.998223
0.993661
0.997379
0.998659
0.998451
0.998437
0.998627
0.9974
0.99376
0.998073
1.00035
0.992499
0.998467
0.997861
0.99743
0.997417
0.997832
0.998491
0.992543
1.00019
1.00117
0.992555
0.999769
0.99782
0.997616
0.997606
0.997791
0.999784
0.992566
1.001
1.00117
0.992766
1.0004
0.997821
0.99818
0.998176
0.99779
1.0004
0.992768
1.00096
1.00103
0.993138
1.00053
0.997631
0.998535
0.99854
0.997598
1.00051
0.993126
1.00079
1.00089
0.99373
1.00054
0.997446
0.998718
0.998733
0.997405
1.0005
0.993691
1.00066
1.00074
0.994414
1.00054
0.997388
0.998874
0.998905
0.997335
1.00049
0.994359
1.00047
1.00055
0.995055
1.00051
0.997419
0.999013
0.999062
0.997349
1.00044
0.994995
1.00023
1.00041
0.9956
1.00042
0.997482
0.999097
0.999168
0.99739
1.00035
0.995543
1.00002
1.00033
0.996066
1.00031
0.997565
0.999133
0.999228
0.997449
1.00023
0.996003
0.999841
1.0003
0.996477
1.0002
0.997676
0.999151
0.999268
0.997535
1.00012
0.996386
0.999724
1.00032
0.996844
1.0001
0.997813
0.999166
0.999307
0.997646
1.00001
0.99671
0.99964
1.00041
0.997167
1.00002
0.997964
0.999183
0.999347
0.997773
0.999918
0.996988
0.999559
1.00053
0.997459
0.999938
0.99812
0.999201
0.999385
0.997905
0.999844
0.997226
0.999469
1.0007
0.997731
0.999866
0.998275
0.999219
0.999421
0.998039
0.999783
0.997427
0.999371
1.00091
0.997991
0.999793
0.99842
0.999234
0.999454
0.99817
0.999732
0.997581
0.999266
1.00113
0.998252
0.999709
0.998548
0.999244
0.999484
0.998289
0.999685
0.997682
0.99914
1.00133
0.998524
0.999599
0.998644
0.999246
0.999507
0.998395
0.999636
0.997717
0.998972
1.00146
0.998811
0.999438
0.99869
0.999232
0.999521
0.998481
0.999574
0.99767
0.998725
1.00138
0.999088
0.999197
0.998654
0.999182
0.999514
0.998539
0.999484
0.997508
0.998346
1.00089
0.999258
0.99881
0.998472
0.999059
0.999468
0.99856
0.99935
0.997181
0.997737
0.999557
0.999062
0.998149
0.998026
0.998779
0.999338
0.998532
0.999164
0.996625
0.996737
0.996721
0.997944
0.996906
0.997087
0.998177
0.999037
0.998443
0.998959
0.995775
0.994985
0.991261
0.994876
0.994449
0.995211
0.996905
0.998333
0.99819
0.998789
0.994677
0.992025
0.98146
0.988238
0.989645
0.991607
0.994357
0.996811
0.997621
0.998912
0.993948
0.986349
0.96501
0.975583
0.98051
0.984736
0.989159
0.993181
0.995676
0.99884
0.995967
0.979158
0.939082
0.953613
0.96401
0.972253
0.979379
0.985613
0.991387
0.997616
1.00774
0.969882
0.90035
0.917931
0.935185
0.948529
0.958511
0.965971
0.975589
0.981262
1.0367
1.01228
1.00055
1.00391
0.999618
1.00039
1.00036
1.00035
1.00039
0.999613
1.00397
1.00048
0.997022
0.998268
0.997893
1.00001
1.00003
1.00002
0.999978
0.997871
0.998366
0.996939
0.998309
0.993857
0.997541
0.998822
0.998636
0.998623
0.99879
0.997558
0.993946
0.998167
1.0006
0.99282
0.998788
0.998232
0.997838
0.997826
0.998209
0.998818
0.99287
1.00042
1.00133
0.992657
0.999843
0.997963
0.997794
0.997786
0.997944
0.999869
0.992706
1.00111
1.001
0.992435
0.999961
0.997422
0.997792
0.997787
0.997401
0.999959
0.992461
1.00079
1.00049
0.992402
0.999611
0.996719
0.997598
0.9976
0.996692
0.999579
0.992383
1.0003
1.00008
0.992716
0.999295
0.996191
0.997405
0.997418
0.996152
0.999241
0.992658
0.999893
0.999746
0.993228
0.999106
0.995931
0.997336
0.997363
0.995878
0.99904
0.993146
0.999524
0.999471
0.993771
0.998973
0.995856
0.997351
0.997396
0.995784
0.998898
0.993677
0.999188
0.999284
0.99429
0.99886
0.995891
0.997396
0.99746
0.995797
0.998785
0.99419
0.998906
0.999197
0.99479
0.998782
0.996009
0.997462
0.997548
0.99589
0.998706
0.994679
0.998696
0.999198
0.995268
0.998747
0.996197
0.997553
0.997662
0.996051
0.998674
0.995137
0.998556
0.999274
0.995718
0.998746
0.996434
0.997668
0.997799
0.99626
0.998676
0.995555
0.998477
0.999419
0.996138
0.998765
0.996695
0.997798
0.997951
0.996495
0.998693
0.995923
0.998447
0.999615
0.996533
0.998796
0.996966
0.997935
0.998108
0.996739
0.998723
0.996247
0.998437
0.999854
0.99691
0.998837
0.997238
0.998074
0.998267
0.996986
0.998767
0.996531
0.998422
1.00012
0.997272
0.998876
0.997499
0.998211
0.998424
0.997228
0.998818
0.996769
0.998395
1.0004
0.997628
0.998899
0.997736
0.998339
0.998572
0.997457
0.998868
0.99695
0.998346
1.00065
0.99798
0.998882
0.997933
0.998451
0.998708
0.997666
0.998912
0.997061
0.99825
1.0008
0.998323
0.998799
0.998063
0.998535
0.998824
0.997848
0.998937
0.997083
0.998063
1.00069
0.998621
0.998613
0.99809
0.998568
0.998903
0.997988
0.998921
0.996978
0.997737
1.00008
0.998753
0.998245
0.997938
0.998498
0.998919
0.998072
0.998846
0.996696
0.997166
0.998522
0.998419
0.997544
0.997467
0.998221
0.998807
0.998071
0.998689
0.996156
0.996183
0.995253
0.996982
0.99615
0.996411
0.997531
0.998445
0.997943
0.998458
0.995278
0.994405
0.989068
0.993314
0.993343
0.994256
0.996022
0.997555
0.997551
0.998183
0.994089
0.991359
0.97829
0.985735
0.987889
0.990131
0.993031
0.995675
0.996702
0.998078
0.993167
0.985514
0.960973
0.972019
0.977829
0.982485
0.987186
0.991527
0.994352
0.997689
0.994963
0.97824
0.934467
0.949004
0.960107
0.968923
0.97652
0.98322
0.989421
0.995904
1.00625
0.96879
0.894604
0.912118
0.929776
0.943977
0.954839
0.963058
0.973228
0.979383
1.0351
1.01197
0.999819
1.00301
0.998896
0.999618
0.999577
0.999575
0.999611
0.998892
1.00306
0.999752
0.995571
0.996399
0.995985
0.997885
0.997892
0.997885
0.997858
0.995966
0.996493
0.995494
0.997459
0.992984
0.996529
0.99756
0.997384
0.997373
0.997534
0.996551
0.993088
0.997328
1.00092
0.993464
0.999457
0.998806
0.998463
0.998453
0.998784
0.999488
0.993524
1.00077
1.00246
0.994336
1.00167
0.999848
0.999745
0.999735
0.999828
1.00168
0.994349
1.00233
1.00258
0.994638
1.00229
0.99994
1.00036
1.00036
0.999923
1.00231
0.994619
1.00244
1.00239
0.994868
1.00218
0.999569
1.00048
1.00048
0.999543
1.00219
0.99484
1.00221
1.00221
0.995321
1.00199
0.999243
1.00047
1.00049
0.9992
1.00199
0.995266
1.00201
1.00199
0.995857
1.00183
0.999052
1.00047
1.0005
0.998992
1.00181
0.995763
1.00179
1.00174
0.996327
1.00163
0.998928
1.00043
1.00047
0.998846
1.00159
0.996205
1.0015
1.00149
0.996721
1.0014
0.998831
1.00034
1.0004
0.998726
1.00135
0.996573
1.00119
1.00128
0.997054
1.00116
0.998768
1.00023
1.0003
0.998636
1.0011
0.996892
1.0009
1.00117
0.997329
1.00095
0.998747
1.00011
1.00021
0.998589
1.00088
0.997175
1.00066
1.00111
0.997572
1.00077
0.998756
1
1.00012
0.998578
1.00067
0.997417
1.00046
1.00112
0.997785
1.00059
0.998782
0.999905
1.00004
0.99859
1.00049
0.997614
1.00027
1.00118
0.997984
1.00044
0.998821
0.999819
0.999967
0.998618
1.00034
0.997773
1.00012
1.00129
0.998179
1.0003
0.998869
0.999748
0.999912
0.998658
1.0002
0.997901
0.999966
1.00144
0.998364
1.00017
0.998918
0.999687
0.999869
0.998706
1.00009
0.997998
0.999812
1.0016
0.998558
1.00004
0.998959
0.999631
0.999837
0.998756
1
0.998056
0.99964
1.00173
0.998758
0.999876
0.998976
0.999576
0.99981
0.998802
0.999923
0.998061
0.99943
1.00172
0.998962
0.999652
0.998942
0.999502
0.999777
0.998834
0.999838
0.997991
0.999145
1.00142
0.999125
0.999313
0.998806
0.999377
0.999715
0.998833
0.99972
0.997805
0.998726
1.00054
0.999087
0.998766
0.998476
0.999135
0.999576
0.998772
0.999535
0.997441
0.998059
0.998544
0.998486
0.99781
0.997764
0.998622
0.999259
0.998589
0.999235
0.996796
0.996953
0.994562
0.99656
0.995987
0.9963
0.997536
0.998559
0.998178
0.998769
0.99574
0.994978
0.987065
0.991895
0.992379
0.993383
0.995296
0.997044
0.997275
0.998066
0.994206
0.991598
0.973998
0.982416
0.98542
0.987832
0.990967
0.994025
0.995495
0.997164
0.992618
0.985076
0.953773
0.966029
0.973045
0.97791
0.982967
0.988009
0.991608
0.995437
0.993251
0.976826
0.923135
0.939048
0.951631
0.961051
0.969403
0.977229
0.984595
0.991757
1.00268
0.965319
0.878672
0.896907
0.91581
0.931656
0.944659
0.955121
0.967073
0.974242
1.02999
1.00826
1.0036
1.00678
1.00306
1.00396
1.00392
1.00392
1.00396
1.00306
1.00684
1.00355
0.996318
0.996946
0.996476
0.99835
0.99831
0.998303
0.998332
0.996472
0.99707
0.996278
0.994239
0.989818
0.993041
0.993916
0.993711
0.993703
0.9939
0.993062
0.989941
0.994165
0.99561
0.987859
0.99348
0.992835
0.992484
0.992477
0.992815
0.993496
0.987912
0.995507
0.996332
0.987419
0.994325
0.992664
0.992495
0.992484
0.99264
0.99433
0.987416
0.996197
0.996276
0.987475
0.994607
0.992421
0.992675
0.992664
0.99241
0.994608
0.987419
0.996113
0.996341
0.988129
0.994827
0.992359
0.99303
0.993033
0.992356
0.994822
0.988039
0.996147
0.996656
0.989271
0.99528
0.992657
0.99362
0.993635
0.992635
0.995263
0.989154
0.996425
0.997018
0.990527
0.995823
0.993166
0.994307
0.994333
0.993122
0.995793
0.990388
0.996743
0.997323
0.991671
0.996312
0.993723
0.994954
0.994988
0.993656
0.99626
0.991501
0.996995
0.997584
0.992681
0.996718
0.994265
0.995518
0.995564
0.994178
0.996645
0.992464
0.997188
0.997865
0.993557
0.997057
0.994783
0.996002
0.996067
0.994671
0.996975
0.993303
0.997351
0.998183
0.994296
0.997356
0.995277
0.996421
0.996506
0.995139
0.997275
0.994036
0.997486
0.998493
0.994941
0.997633
0.995745
0.996786
0.996892
0.995578
0.997532
0.994669
0.997599
0.998815
0.99551
0.997875
0.996177
0.997106
0.997232
0.995983
0.997747
0.995189
0.997723
0.999148
0.996021
0.998089
0.996572
0.997388
0.997533
0.996356
0.997944
0.995604
0.997857
0.999478
0.996496
0.998278
0.996931
0.997636
0.997799
0.996696
0.99812
0.995945
0.997954
0.999818
0.996936
0.99843
0.997248
0.997851
0.998033
0.997002
0.998271
0.99622
0.997996
1.00014
0.997347
0.998527
0.997515
0.998031
0.998235
0.997271
0.998396
0.996423
0.99798
1.00042
0.997732
0.998547
0.997719
0.998172
0.998403
0.997498
0.998486
0.996543
0.997888
1.00054
0.998097
0.998466
0.99784
0.998263
0.998528
0.99768
0.998531
0.996558
0.997686
1.00032
0.998418
0.998256
0.997831
0.998271
0.998588
0.997797
0.998509
0.996429
0.997316
0.999502
0.998551
0.99783
0.997599
0.998127
0.998534
0.99782
0.998385
0.996093
0.996665
0.997595
0.998127
0.996997
0.996947
0.997662
0.998252
0.997676
0.998105
0.995449
0.995546
0.993493
0.996238
0.995243
0.99543
0.996504
0.997494
0.997238
0.997611
0.994368
0.99353
0.984821
0.990839
0.991406
0.992186
0.993925
0.995717
0.996162
0.996781
0.992768
0.990074
0.968591
0.978792
0.98316
0.985558
0.988637
0.991957
0.993874
0.99552
0.991032
0.983414
0.944366
0.959403
0.968578
0.973499
0.978567
0.984089
0.988519
0.992649
0.991095
0.974961
0.905447
0.925836
0.941495
0.9515
0.960444
0.969227
0.978041
0.986174
0.998942
0.962807
0.851799
0.871801
0.892263
0.909929
0.92533
0.938209
0.952868
0.962224
1.02105
1.00534
0.999563
1.00354
0.999752
1.00048
1.00049
1.00049
1.00047
0.999751
1.00356
0.999502
0.994941
0.996229
0.995482
0.996924
0.996953
0.996949
0.996911
0.995479
0.996282
0.994863
0.999324
0.994121
0.997298
0.99815
0.998051
0.998044
0.998137
0.99732
0.994179
0.999164
1.0038
0.995502
1.00075
1.00041
1.00017
1.00017
1.00041
1.00078
0.99554
1.00362
1.00493
0.996245
1.00232
1.00113
1.00101
1.00102
1.00113
1.00236
0.996251
1.00477
1.00438
0.99621
1.00248
1.00084
1.00105
1.00106
1.00081
1.00249
0.996185
1.00424
1.00369
0.996285
1.00233
1.0004
1.00092
1.00092
1.00034
1.00231
0.996246
1.00355
1.00313
0.996594
1.00217
1.00003
1.00079
1.00079
0.999976
1.00211
0.996553
1.00296
1.00259
0.996935
1.00196
0.999713
1.00062
1.00063
0.999662
1.00187
0.996901
1.00238
1.00208
0.997196
1.00168
0.99942
1.00042
1.00045
0.999369
1.00157
0.997187
1.00181
1.00165
0.997394
1.0014
0.999184
1.00022
1.00027
0.999124
1.00127
0.997414
1.00132
1.00134
0.997593
1.00115
0.999036
1.00007
1.00012
0.998962
1.00101
0.997598
1.00095
1.00116
0.997805
1.00095
0.99896
0.999955
1.00002
0.99887
1.00079
0.997746
1.00067
1.00107
0.99799
1.0008
0.998939
0.999882
0.99995
0.998832
1.00063
0.997882
1.00045
1.00107
0.998168
1.00068
0.998961
0.999837
0.999914
0.998833
1.00052
0.998014
1.00027
1.00115
0.998343
1.0006
0.999012
0.999812
0.999902
0.998862
1.00042
0.998134
1.00012
1.0013
0.998521
1.00054
0.999084
0.999807
0.999911
0.998914
1.00036
0.998235
1.00001
1.00153
0.998733
1.00048
0.999171
0.999822
0.999946
0.99899
1.00033
0.998319
0.99991
1.00181
0.999007
1.00041
0.999269
0.999858
1.00001
0.999092
1.00032
0.99839
0.999821
1.00209
0.999372
1.00031
0.999368
0.999913
1.0001
0.999217
1.00035
0.998443
0.999727
1.00225
0.999818
1.00014
0.999433
0.999978
1.00021
0.999366
1.00039
0.998466
0.999601
1.00205
1.00026
0.999858
0.999413
1.00002
1.00034
0.999534
1.00044
0.998439
0.999397
1.00107
1.00046
0.999353
0.999183
0.999945
1.00042
0.999702
1.00049
0.998321
0.999022
0.998557
0.999839
0.998371
0.99849
0.999528
1.00032
0.999796
1.0005
0.998041
0.998308
0.993194
0.99702
0.996207
0.996746
0.998272
0.99968
0.999648
1.00041
0.997511
0.996861
0.98164
0.989153
0.99128
0.992838
0.995237
0.997788
0.998802
1.00005
0.99667
0.994136
0.960777
0.973369
0.980974
0.984659
0.988719
0.993324
0.99646
0.999252
0.996085
0.988541
0.93724
0.955563
0.965336
0.970472
0.976584
0.983855
0.990266
0.99628
0.997534
0.981512
0.900402
0.921413
0.936244
0.944738
0.954763
0.966163
0.978345
0.989577
1.00867
0.973642
0.84178
0.855786
0.876931
0.896053
0.913313
0.928562
0.946706
0.958912
1.03026
1.02814
0.808801
0.819831
0.83915
0.860677
0.880746
0.897339
0.918804
0.926837
1.00414
1.02815
0.785416
0.794229
0.812786
0.83459
0.855387
0.872846
0.895766
0.905213
0.977726
1.04555
0.760486
0.767896
0.785826
0.806764
0.826859
0.84381
0.866573
0.879836
0.942755
1.0476
0.734511
0.740677
0.758227
0.777593
0.795882
0.81133
0.832188
0.848611
0.90085
1.01927
0.707828
0.7127
0.729907
0.747339
0.763372
0.776645
0.794275
0.811388
0.852508
0.968898
0.680698
0.684099
0.700764
0.715793
0.72901
0.739577
0.753533
0.769885
0.800178
0.90593
0.653297
0.655026
0.670668
0.682897
0.692955
0.700342
0.710172
0.724602
0.746189
0.836292
0.625715
0.625614
0.639624
0.648762
0.655494
0.659494
0.66513
0.676386
0.6912
0.763658
0.598002
0.596075
0.607865
0.613727
0.616839
0.617119
0.618253
0.625533
0.634613
0.690686
0.5703
0.566662
0.575699
0.577906
0.57655
0.572389
0.56877
0.571783
0.575844
0.617466
0.542714
0.537398
0.543044
0.540805
0.534294
0.525445
0.517509
0.516252
0.516051
0.54521
0.515129
0.508047
0.509463
0.502126
0.4906
0.477509
0.465893
0.460678
0.456921
0.475882
0.487286
0.478313
0.474934
0.46253
0.446558
0.429865
0.415212
0.406643
0.400029
0.411056
0.45895
0.448092
0.43993
0.422958
0.403173
0.383549
0.366572
0.355418
0.346654
0.351846
0.430057
0.417555
0.404984
0.384053
0.361121
0.339294
0.320708
0.307734
0.297429
0.298495
0.400843
0.386933
0.370426
0.346211
0.320846
0.297531
0.277971
0.263813
0.252407
0.250533
0.3715
0.356366
0.336482
0.309692
0.282614
0.258455
0.238429
0.223529
0.211278
0.207156
0.342074
0.325988
0.303341
0.27469
0.246597
0.222142
0.202015
0.186659
0.173769
0.167918
0.312658
0.295956
0.271188
0.241373
0.212937
0.188639
0.168728
0.153161
0.139865
0.132421
0.283448
0.266464
0.24023
0.209937
0.181766
0.158055
0.138557
0.122813
0.109338
0.100562
0.254718
0.237743
0.2107
0.180579
0.153218
0.130337
0.111348
0.0957167
0.0825265
0.0729625
0.22679
0.21005
0.182836
0.153465
0.127347
0.105457
0.0873203
0.0723301
0.059987
0.0502824
0.200001
0.183658
0.156861
0.128752
0.104142
0.0835812
0.0667434
0.0529495
0.0419337
0.032919
0.174663
0.158833
0.132957
0.106564
0.0836956
0.0648309
0.049709
0.0375807
0.0282228
0.0205529
0.151036
0.135814
0.111283
0.08689
0.0660397
0.0491957
0.0361153
0.025916
0.0183352
0.0122963
0.129318
0.114788
0.0919529
0.069725
0.0511294
0.0365466
0.0256546
0.0174113
0.0115374
0.00709979
0.10964
0.0958665
0.0749974
0.0550484
0.0388592
0.0266311
0.0178663
0.0114297
0.00706523
0.00399292
0.0920534
0.0791076
0.0603243
0.042759
0.0290316
0.0190813
0.0122317
0.00735815
0.00423488
0.00220211
0.0765362
0.0645485
0.0478397
0.0326932
0.0213488
0.0134706
0.00825254
0.00466874
0.00250076
0.00119336
0.0630163
0.0521653
0.0374246
0.024633
0.0154907
0.00940842
0.00551953
0.00295269
0.00147586
0.000643645
0.821685
0.837846
0.858866
0.879272
0.897932
0.913027
0.931459
0.937208
1.00526
1.00472
0.800106
0.814219
0.835967
0.857429
0.877052
0.89298
0.913297
0.919761
0.98554
1.01682
0.776052
0.788539
0.811245
0.83352
0.853484
0.869338
0.890103
0.899675
0.958896
1.02329
0.750253
0.760765
0.78425
0.807015
0.827096
0.842591
0.862281
0.874832
0.925645
1.00951
0.723221
0.731205
0.755168