/*--------------------------------*- C++ -*----------------------------------*\
| =========                 |                                                 |
| \\      /  F ield         | OpenFOAM: The Open Source CFD Toolbox           |
|  \\    /   O peration     | Version:  4.1                                   |
|   \\  /    A nd           | Web:      www.OpenFOAM.org                      |
|    \\/     M anipulation  |                                                 |
\*---------------------------------------------------------------------------*/
FoamFile
{
    version     2.0;
    format      ascii;
    class       volScalarField;
    location    "500";
    object      epsilon;
}
// * * * * * * * * * * * * * * * * * * * * * * * * * * * * * * * * * * * * * //

dimensions      [0 2 -3 0 0 0 0];

internalField   nonuniform List<scalar> 
12000
(
0.319792
0.312079
0.310766
0.310469
0.310396
0.310398
0.310473
0.310767
0.311907
0.319591
0.0651512
0.0635938
0.0626631
0.0622289
0.062096
0.0620964
0.0622306
0.062676
0.0636319
0.0652329
0.0176477
0.0176948
0.0173634
0.0171316
0.0170467
0.0170471
0.0171325
0.0173645
0.0177061
0.0176651
0.00615133
0.0063649
0.00623242
0.00612139
0.0060747
0.00607486
0.00612176
0.00623139
0.00637512
0.00616529
0.00262664
0.00277902
0.00273519
0.00268195
0.00265594
0.00265608
0.00268162
0.00273148
0.00278511
0.00263832
0.00131658
0.0014102
0.00140034
0.00137364
0.00135821
0.0013586
0.00137377
0.00139858
0.00141387
0.00132391
0.000746489
0.000805118
0.00080704
0.000792524
0.000782779
0.000783024
0.000792642
0.000806239
0.000807344
0.000751148
0.000464178
0.00050268
0.000508232
0.000499958
0.000493571
0.000493748
0.00050077
0.000508559
0.000504034
0.000467705
0.000309579
0.000336527
0.000343336
0.000338214
0.000333583
0.000333461
0.000338046
0.000344109
0.000338219
0.000312811
0.000218102
0.000238165
0.00024457
0.000241452
0.000237706
0.000238361
0.00024164
0.000245787
0.000239525
0.00022127
0.000160489
0.00017623
0.000182387
0.000180189
0.000177464
0.000177621
0.000180379
0.000183314
0.000177727
0.000163726
0.000122358
0.000135487
0.000140603
0.000139377
0.000137062
0.000137836
0.000139648
0.000141988
0.000136776
0.000125668
9.60052e-05
0.00010716
0.000111513
0.000110818
0.000109071
0.000109271
0.000110985
0.000112813
0.000108362
9.94303e-05
7.71157e-05
8.67494e-05
9.09339e-05
9.03514e-05
8.86712e-05
8.9021e-05
9.05562e-05
9.21192e-05
8.81734e-05
8.07268e-05
6.31745e-05
7.17769e-05
7.57815e-05
7.52455e-05
7.39268e-05
7.42898e-05
7.56509e-05
7.69942e-05
7.33753e-05
6.70418e-05
5.25904e-05
6.04278e-05
6.42074e-05
6.38287e-05
6.29775e-05
6.33301e-05
6.44817e-05
6.55415e-05
6.21996e-05
5.67696e-05
4.43392e-05
5.16179e-05
5.52821e-05
5.5013e-05
5.45174e-05
5.4886e-05
5.5787e-05
5.67771e-05
5.36779e-05
4.89402e-05
3.77353e-05
4.46145e-05
4.81574e-05
4.80622e-05
4.7856e-05
4.82272e-05
4.90244e-05
4.9887e-05
4.70253e-05
4.28346e-05
3.23077e-05
3.89066e-05
4.2398e-05
4.2449e-05
4.24356e-05
4.27943e-05
4.35491e-05
4.44283e-05
4.18486e-05
3.80851e-05
2.77155e-05
3.41644e-05
3.7636e-05
3.78605e-05
3.80251e-05
3.84632e-05
3.91489e-05
3.9985e-05
3.76967e-05
3.4269e-05
2.37083e-05
3.00887e-05
3.36216e-05
3.40284e-05
3.4288e-05
3.47651e-05
3.54827e-05
3.6419e-05
3.4475e-05
3.13293e-05
2.00719e-05
2.64508e-05
3.01356e-05
3.07881e-05
3.12084e-05
3.18246e-05
3.25179e-05
3.34448e-05
3.18254e-05
2.89037e-05
1.66475e-05
2.30801e-05
2.70469e-05
2.79639e-05
2.84532e-05
2.91333e-05
2.99722e-05
3.10749e-05
2.98817e-05
2.71639e-05
1.3258e-05
1.97836e-05
2.41897e-05
2.54938e-05
2.62119e-05
2.70568e-05
2.7885e-05
2.9045e-05
2.81793e-05
2.57068e-05
9.78742e-06
1.62879e-05
2.14093e-05
2.3156e-05
2.39683e-05
2.4918e-05
2.60343e-05
2.74952e-05
2.70963e-05
2.49087e-05
6.0055e-06
1.25191e-05
1.84591e-05
2.09751e-05
2.21847e-05
2.3324e-05
2.44021e-05
2.607e-05
2.60393e-05
2.42822e-05
2.4247e-06
8.17784e-06
1.50897e-05
1.83807e-05
1.99744e-05
2.13849e-05
2.2931e-05
2.50731e-05
2.55799e-05
2.42504e-05
1.37907e-06
4.40573e-06
1.07653e-05
1.55702e-05
1.80439e-05
1.97745e-05
2.11927e-05
2.38348e-05
2.51234e-05
2.48562e-05
2.19729e-06
3.76749e-06
5.86878e-06
9.49985e-06
1.42999e-05
1.74396e-05
1.96678e-05
2.26035e-05
2.5131e-05
2.51549e-05
4.44417e-06
6.42583e-06
7.15148e-06
7.38025e-06
8.29492e-06
1.15072e-05
1.5744e-05
2.05093e-05
2.41838e-05
2.77598e-05
0.312077
0.993303
0.988978
0.988304
0.988182
0.988183
0.988303
0.988976
0.993842
0.312249
0.0635901
0.0650907
0.0186611
0.0181543
0.0181804
0.0181845
0.0181649
0.0186962
0.0645362
0.0640412
0.0176918
0.00303204
0.000610449
0.00060256
0.000601314
0.000601012
0.000601642
0.000609044
0.00297304
0.0178216
0.00636179
0.000363129
0.000221182
0.000221747
0.000220939
0.000220046
0.00022015
0.000218945
0.000353183
0.00642326
0.00277666
0.000127115
9.68578e-05
9.71827e-05
9.68405e-05
9.64558e-05
9.6271e-05
9.48204e-05
0.000123149
0.00280086
0.00140839
6.36142e-05
4.35379e-05
4.38683e-05
4.35423e-05
4.32073e-05
4.30584e-05
4.21989e-05
6.14118e-05
0.00141578
0.000803589
4.34004e-05
2.01923e-05
1.95846e-05
2.02193e-05
1.93333e-05
2.03187e-05
1.99519e-05
3.71918e-05
0.000805179
0.000501307
2.96148e-05
1.02445e-05
1.10368e-05
1.04809e-05
1.17356e-05
1.01826e-05
1.02826e-05
2.46546e-05
0.000501892
0.000335222
2.42961e-05
6.31647e-06
6.20246e-06
6.79525e-06
7.38043e-06
7.04606e-06
5.9895e-06
3.08109e-05
0.000336599
0.000236903
2.6971e-05
3.03824e-06
3.90242e-06
3.39659e-06
4.40562e-06
4.53363e-06
3.54289e-06
2.39361e-05
0.000238826
0.000174982
2.03435e-05
4.90887e-06
3.03015e-06
5.03991e-06
3.82629e-06
3.4465e-06
4.72766e-06
3.28145e-05
0.00017764
0.000134226
3.12963e-05
4.15018e-06
3.39117e-06
5.27025e-06
2.25114e-06
2.4017e-06
4.82604e-06
2.59613e-05
0.000137069
0.000105877
2.40987e-05
4.56492e-06
4.86016e-06
5.34311e-06
1.62267e-06
1.22319e-06
4.72475e-06
2.39294e-05
0.000108973
8.54075e-05
2.21648e-05
5.12992e-06
3.69186e-06
4.36444e-06
4.17531e-06
3.41894e-06
4.74853e-06
1.89929e-05
8.89765e-05
7.03531e-05
1.84765e-05
6.71065e-06
5.37205e-06
8.48218e-06
4.27085e-06
5.04231e-06
5.82992e-06
1.90738e-05
7.42788e-05
5.89069e-05
1.87741e-05
5.31455e-06
5.35877e-06
5.99878e-06
5.46138e-06
5.00969e-06
4.34073e-06
1.73363e-05
6.31418e-05
4.99878e-05
1.79242e-05
6.15327e-06
4.55753e-06
6.53811e-06
4.27433e-06
5.97426e-06
5.41352e-06
1.56766e-05
5.44764e-05
4.28573e-05
1.67597e-05
6.73937e-06
4.81681e-06
4.99935e-06
4.97283e-06
4.61255e-06
5.78245e-06
1.38657e-05
4.7724e-05
3.70204e-05
1.56776e-05
6.76737e-06
5.00154e-06
5.60496e-06
5.10461e-06
5.13817e-06
5.62609e-06
1.24517e-05
4.22448e-05
3.21427e-05
1.48867e-05
6.50688e-06
4.91616e-06
5.55902e-06
4.94633e-06
5.13159e-06
5.35233e-06
1.10699e-05
3.79436e-05
2.7965e-05
1.44123e-05
6.40811e-06
4.77358e-06
5.2553e-06
4.70174e-06
4.89263e-06
5.01834e-06
1.0018e-05
3.42805e-05
2.42501e-05
1.42144e-05
6.27447e-06
4.6574e-06
4.96049e-06
4.51792e-06
4.66946e-06
4.73015e-06
9.04356e-06
3.15167e-05
2.09174e-05
1.44115e-05
6.38604e-06
4.56494e-06
4.68878e-06
4.32576e-06
4.50709e-06
4.55721e-06
8.38816e-06
2.89547e-05
1.77624e-05
1.49841e-05
7.12745e-06
4.69228e-06
4.65449e-06
4.31758e-06
4.38353e-06
4.46582e-06
7.69658e-06
2.71707e-05
1.46678e-05
1.5339e-05
7.94495e-06
4.96298e-06
4.71095e-06
4.3926e-06
4.44938e-06
4.53253e-06
7.3106e-06
2.53558e-05
1.14883e-05
1.60339e-05
9.56337e-06
5.6408e-06
4.94257e-06
4.58624e-06
4.61606e-06
4.74074e-06
6.95286e-06
2.41726e-05
8.2316e-06
1.73022e-05
1.17943e-05
6.66231e-06
5.41551e-06
5.00995e-06
5.07263e-06
5.15119e-06
7.07859e-06
2.28439e-05
5.10461e-06
1.91747e-05
1.44751e-05
8.54341e-06
6.48579e-06
5.69786e-06
5.66423e-06
5.88881e-06
7.26137e-06
2.15603e-05
3.68189e-06
2.28042e-05
1.96164e-05
1.13887e-05
8.22239e-06
7.1874e-06
6.95805e-06
7.16416e-06
1.02115e-05
2.0616e-05
3.95192e-06
2.51438e-05
2.68992e-05
1.84138e-05
1.151e-05
8.9633e-06
8.7831e-06
9.19064e-06
1.50004e-05
1.9877e-05
0.310764
0.98898
0.971069
0.970426
0.970303
0.970304
0.970427
0.97107
0.989285
0.311175
0.0626599
0.018676
0.006785
0.00671367
0.00667597
0.00666903
0.00671065
0.0068637
0.0186083
0.0631747
0.0173601
0.00061092
3.62898e-05
4.2969e-05
4.51718e-05
4.59892e-05
4.04047e-05
3.04187e-05
0.000609707
0.0174884
0.00623022
0.000221218
7.80584e-07
9.50445e-07
9.98465e-07
9.72924e-07
7.49637e-07
5.09541e-07
0.000221585
0.00628993
0.00273314
9.68941e-05
5.9776e-07
9.04653e-07
8.55414e-07
8.67147e-07
5.22898e-07
1.76127e-06
9.69637e-05
0.00275704
0.00139853
4.35779e-05
8.86482e-07
4.83267e-07
5.1771e-07
4.86304e-07
1.21028e-06
1.01371e-06
4.38769e-05
0.00140666
0.000805441
2.02906e-05
4.52088e-07
3.21832e-07
7.80598e-07
7.8256e-07
9.4745e-07
3.74112e-07
1.90957e-05
0.000808343
0.000506772
1.035e-05
7.42042e-07
1.86629e-07
5.36288e-07
4.4492e-07
5.53146e-07
2.42684e-07
1.15745e-05
0.000508836
0.000341839
6.52285e-06
4.4277e-07
1.02288e-07
4.2169e-07
2.67101e-07
2.01714e-07
1.28154e-07
6.85667e-06
0.000343544
0.000243343
3.67201e-06
2.20848e-07
6.01643e-08
2.03184e-07
1.47978e-07
2.79335e-07
6.56331e-08
4.08665e-06
0.000245051
0.000181269
4.76607e-06
8.71659e-08
2.66114e-08
2.01679e-07
9.05517e-08
2.34031e-07
4.33631e-08
3.43027e-06
0.000182881
0.000139582
5.9284e-06
1.21732e-07
3.11955e-08
1.10104e-07
1.13253e-07
2.00247e-07
3.03574e-08
1.68696e-06
0.000141485
0.000110593
5.0675e-06
1.19322e-07
2.73715e-08
7.7928e-08
8.87148e-08
1.65067e-07
2.77894e-08
2.75708e-06
0.000112546
8.98271e-05
6.81514e-06
1.04351e-07
2.7914e-08
6.12253e-08
4.82507e-08
9.72835e-08
3.75754e-08
3.47777e-06
9.18282e-05
7.44266e-05
6.88682e-06
8.82177e-08
3.47102e-08
8.43818e-08
4.42835e-08
8.80977e-08
7.33083e-08
3.84437e-06
7.65508e-05
6.27176e-05
6.8343e-06
1.17263e-07
3.98844e-08
6.88981e-08
3.65035e-08
6.66166e-08
6.24933e-08
4.8469e-06
6.51735e-05
5.35722e-05
7.87588e-06
1.70988e-07
6.17973e-08
6.98999e-08
2.01439e-08
5.16268e-08
1.04386e-07
3.71459e-06
5.62424e-05
4.62405e-05
6.6592e-06
3.59738e-07
5.86803e-08
9.53641e-08
4.01705e-08
3.9165e-08
1.05641e-07
4.44513e-06
4.93916e-05
4.02045e-05
6.6899e-06
4.14689e-07
1.00786e-07
1.0624e-07
5.02428e-08
3.50904e-08
1.29407e-07
4.50946e-06
4.36061e-05
3.51195e-05
7.49637e-06
5.07729e-07
1.10607e-07
1.27954e-07
7.0365e-08
2.933e-08
1.82232e-07
4.19958e-06
3.91766e-05
3.07721e-05
7.61322e-06
6.43221e-07
1.41113e-07
1.77923e-07
1.07873e-07
1.5849e-08
1.45301e-07
3.7785e-06
3.51069e-05
2.69311e-05
8.14834e-06
8.45342e-07
1.60322e-07
1.5412e-07
1.4095e-07
4.33916e-08
1.7252e-07
3.3576e-06
3.21455e-05
2.35065e-05
8.92469e-06
1.07627e-06
2.06454e-07
1.72848e-07
1.6236e-07
1.06163e-07
1.69787e-07
2.96558e-06
2.90809e-05
2.03288e-05
9.56763e-06
1.49649e-06
2.87996e-07
2.19043e-07
1.82261e-07
1.92233e-07
1.92477e-07
2.60007e-06
2.70567e-05
1.7372e-05
1.07322e-05
1.90472e-06
4.14739e-07
2.77321e-07
2.03423e-07
2.19631e-07
2.26601e-07
2.25209e-06
2.44648e-05
1.45382e-05
1.19751e-05
2.73338e-06
5.87221e-07
3.21237e-07
2.42304e-07
2.59114e-07
2.624e-07
1.91914e-06
2.30079e-05
1.17886e-05
1.27453e-05
4.26338e-06
9.51919e-07
4.42662e-07
2.95205e-07
3.2566e-07
3.03772e-07
1.74509e-06
2.06621e-05
9.10015e-06
1.37976e-05
6.46216e-06
1.55022e-06
6.30056e-07
4.10332e-07
3.78827e-07
4.0973e-07
1.45879e-06
1.89844e-05
6.7319e-06
1.54636e-05
9.05756e-06
2.7258e-06
1.07319e-06
5.84355e-07
5.25689e-07
5.11161e-07
1.55163e-06
1.60023e-05
5.22044e-06
1.75225e-05
1.33333e-05
5.10435e-06
1.9747e-06
1.01367e-06
7.27644e-07
8.18459e-07
1.98053e-06
1.33088e-05
0.310467
0.988307
0.970427
0.969763
0.969635
0.969636
0.969764
0.970427
0.988609
0.310891
0.0622256
0.0181712
0.00671949
0.00661639
0.00658716
0.00658872
0.00660002
0.00668316
0.0180998
0.0627357
0.0171283
0.000603047
4.17462e-05
4.90259e-05
4.76598e-05
4.83143e-05
4.86235e-05
4.81435e-05
0.000601839
0.0172519
0.00611848
0.000221726
9.11179e-07
7.32537e-07
3.15915e-07
1.02967e-06
2.72933e-07
9.6493e-07
0.000222165
0.00617442
0.00267953
9.74788e-05
6.60554e-07
3.05862e-08
5.07963e-09
6.9237e-10
1.49962e-08
9.21304e-08
9.76441e-05
0.00270155
0.00137175
4.33778e-05
1.00616e-06
6.5344e-09
6.528e-09
3.53741e-11
4.97967e-10
3.11942e-07
4.32219e-05
0.00137921
0.000790497
2.04932e-05
5.2408e-07
5.64005e-09
6.1386e-09
5.33354e-09
1.72134e-09
7.33878e-08
2.01701e-05
0.000793651
0.000498448
9.81306e-06
2.82903e-07
1.12369e-09
3.4879e-09
2.22776e-09
1.16093e-09
4.71072e-08
1.03685e-05
0.000500223
0.000336595
6.01925e-06
2.11371e-07
2.96695e-10
5.41922e-09
1.15655e-09
7.18153e-10
5.61881e-08
6.37941e-06
0.000338312
0.000240084
4.82098e-06
1.44469e-07
3.57508e-10
3.01014e-09
6.2697e-10
1.98038e-09
3.78872e-08
3.67972e-06
0.000242113
0.00017847
4.78843e-06
1.1079e-07
4.51868e-10
2.26039e-09
1.1915e-09
1.16983e-09
3.95597e-08
5.00243e-06
0.000181122
0.0001374
6.25467e-06
8.57843e-08
6.13358e-10
1.65031e-09
8.3337e-10
8.28938e-10
5.84842e-08
5.99274e-06
0.000140747
0.000108789
8.13962e-06
7.06196e-08
7.43945e-10
1.59001e-09
1.04144e-09
6.68797e-10
5.45276e-08
5.36146e-06
0.00011234
8.8334e-05
8.54657e-06
7.81928e-08
5.47013e-10
9.20561e-10
9.7382e-10
4.53698e-10
9.52061e-08
5.57758e-06
9.16608e-05
7.31553e-05
7.26295e-06
3.41762e-08
9.73795e-10
4.57732e-10
8.83408e-10
5.11093e-10
5.71018e-08
5.61336e-06
7.65292e-05
6.16998e-05
8.30739e-06
1.65453e-07
1.59412e-09
2.9697e-10
8.06145e-10
7.49523e-10
9.81945e-08
4.27887e-06
6.53531e-05
5.27322e-05
8.9596e-06
2.20359e-07
2.67349e-09
1.86901e-10
4.4914e-10
6.39044e-10
1.17477e-07
4.19195e-06
5.6581e-05
4.55584e-05
9.18332e-06
4.18403e-07
7.34331e-09
2.18645e-10
2.07171e-10
5.35854e-10
1.14087e-07
4.65147e-06
4.9858e-05
3.96532e-05
8.92315e-06
4.42882e-07
1.23791e-08
5.58354e-10
1.33818e-10
3.43278e-10
1.01631e-07
4.51288e-06
4.41338e-05
3.4686e-05
8.99039e-06
5.40733e-07
1.55821e-08
8.11526e-10
1.84198e-10
1.76589e-10
8.88238e-08
4.17566e-06
3.97675e-05
3.04106e-05
8.79776e-06
7.27537e-07
2.95677e-08
1.96428e-09
3.17681e-10
1.02453e-10
7.49002e-08
3.68195e-06
3.56768e-05
2.66448e-05
8.97013e-06
9.11138e-07
5.20381e-08
3.13783e-09
9.02939e-10
4.24592e-10
6.50171e-08
3.28136e-06
3.27437e-05
2.3294e-05
9.46528e-06
1.09955e-06
8.04056e-08
8.58677e-09
1.67549e-09
9.47771e-10
5.44082e-08
2.80784e-06
2.95848e-05
2.02134e-05
9.80184e-06
1.44649e-06
1.35073e-07
1.09725e-08
3.37158e-09
2.31372e-09
4.68558e-08
2.44958e-06
2.75163e-05
1.73626e-05
1.06708e-05
1.8045e-06
2.13067e-07
2.9803e-08
4.429e-09
3.64496e-09
3.80059e-08
2.02024e-06
2.4846e-05
1.46804e-05
1.17939e-05
2.49739e-06
3.51044e-07
4.09645e-08
1.07836e-08
5.8999e-09
3.19202e-08
1.71516e-06
2.31966e-05
1.21066e-05
1.2191e-05
3.85726e-06
5.75191e-07
1.00927e-07
1.48572e-08
7.67951e-09
2.62824e-08
1.36806e-06
2.07295e-05
9.66489e-06
1.28617e-05
5.58888e-06
1.1238e-06
1.77927e-07
4.33216e-08
1.65384e-08
2.53677e-08
1.17268e-06
1.91125e-05
7.36431e-06
1.35855e-05
7.35171e-06
1.75805e-06
3.91525e-07
7.47954e-08
2.37496e-08
2.69244e-08
8.26836e-07
1.52554e-05
5.35673e-06
1.45718e-05
9.7126e-06
3.02524e-06
7.54773e-07
2.15845e-07
5.84299e-08
4.86102e-08
9.00561e-07
1.35092e-05
0.310394
0.988186
0.970303
0.969635
0.969506
0.969507
0.969636
0.970304
0.988489
0.310818
0.0620923
0.0181987
0.00666766
0.00658997
0.00657714
0.00657636
0.00659043
0.00670619
0.0181166
0.0626014
0.0170428
0.000601776
4.59767e-05
4.83784e-05
4.73985e-05
4.59688e-05
4.85652e-05
4.21444e-05
0.000600647
0.0171651
0.00607136
0.000220927
1.00458e-06
1.04439e-06
3.15348e-07
2.49858e-07
1.57546e-07
8.97457e-07
0.000221163
0.00612602
0.00265319
9.69532e-05
5.41954e-07
3.14858e-08
2.43084e-10
2.89452e-10
5.79564e-09
5.90567e-07
9.71424e-05
0.0026745
0.00135603
4.3375e-05
1.25043e-06
7.45613e-09
3.07596e-13
3.90822e-12
4.30611e-09
1.97689e-07
4.3201e-05
0.00136336
0.000780569
2.05326e-05
9.46766e-07
7.0309e-09
1.2087e-13
6.28748e-14
2.46756e-09
8.51906e-08
1.99913e-05
0.000783734
0.000491442
1.06809e-05
4.68826e-07
4.72839e-09
1.25353e-13
2.31065e-12
7.93207e-10
5.6405e-08
1.02623e-05
0.000493768
0.000331942
6.72817e-06
4.91944e-07
3.35803e-09
3.51143e-13
9.61076e-13
4.22457e-10
4.34946e-08
6.00682e-06
0.000333868
0.000236549
3.8391e-06
3.75217e-07
1.77762e-09
9.56334e-13
3.71476e-13
2.39369e-10
1.32078e-08
3.877e-06
0.000238964
0.000176228
5.81254e-06
1.78956e-07
3.91867e-09
1.43678e-11
4.58554e-12
1.32979e-10
9.12446e-08
3.68891e-06
0.000178579
0.000135852
6.80668e-06
1.80363e-07
2.03777e-09
2.17576e-11
4.35281e-12
9.75259e-11
5.43921e-08
4.0112e-06
0.000138863
0.000107667
5.85904e-06
1.463e-07
2.86276e-09
2.25208e-11
2.26549e-12
4.12582e-11
6.72704e-08
4.06081e-06
0.000110342
8.74795e-05
7.59186e-06
1.1589e-07
1.96148e-09
2.7987e-11
5.5243e-12
2.43203e-10
1.5103e-07
4.82715e-06
9.01188e-05
7.25567e-05
6.48586e-06
8.67549e-08
1.22875e-09
2.25903e-11
2.56451e-12
3.10208e-10
9.46591e-08
5.96448e-06
7.52286e-05
6.1112e-05
6.35925e-06
7.00314e-08
8.80165e-10
1.06723e-11
5.75501e-12
4.58383e-10
1.27631e-07
4.51642e-06
6.43183e-05
5.22171e-05
6.73228e-06
6.28461e-08
1.02442e-09
2.7076e-11
5.83156e-12
5.10228e-10
1.39784e-07
5.6735e-06
5.57287e-05
4.51119e-05
7.55553e-06
1.73574e-07
2.96544e-09
2.12737e-11
1.4747e-12
4.3323e-10
1.3707e-07
5.91811e-06
4.92007e-05
3.92838e-05
6.85863e-06
2.65006e-07
5.94176e-09
1.34935e-10
6.95421e-11
5.34235e-10
1.2143e-07
5.49128e-06
4.36012e-05
3.43714e-05
7.50707e-06
4.02705e-07
8.56209e-09
9.9024e-11
1.41288e-11
4.61617e-10
1.05811e-07
4.94023e-06
3.93641e-05
3.01684e-05
7.67029e-06
6.00585e-07
2.27887e-08
6.52407e-10
1.22906e-10
3.7606e-10
9.01658e-08
4.26534e-06
3.53317e-05
2.64605e-05
8.07765e-06
7.7874e-07
4.15982e-08
1.03512e-09
8.06499e-11
3.773e-10
7.48912e-08
3.65081e-06
3.24427e-05
2.31631e-05
8.74362e-06
1.0019e-06
7.29024e-08
5.00916e-09
6.71483e-10
3.48684e-10
6.15976e-08
3.09783e-06
2.9332e-05
2.01157e-05
9.37159e-06
1.33434e-06
1.20929e-07
7.69855e-09
7.60095e-10
3.58163e-10
4.91746e-08
2.58893e-06
2.7268e-05
1.72983e-05
1.0352e-05
1.73082e-06
1.99637e-07
2.48865e-08
1.23327e-09
2.87126e-10
3.9823e-08
2.12756e-06
2.46179e-05
1.46119e-05
1.15267e-05
2.32629e-06
3.22027e-07
3.60877e-08
5.9797e-09
1.02466e-09
3.01394e-08
1.75864e-06
2.30205e-05
1.20397e-05
1.20781e-05
3.77213e-06
5.36987e-07
9.49371e-08
9.34514e-09
5.48001e-10
2.49054e-08
1.38398e-06
2.05884e-05
9.53159e-06
1.26904e-05
5.38253e-06
1.0527e-06
1.65267e-07
3.39645e-08
6.55525e-09
1.6175e-08
1.19089e-06
1.88659e-05
7.18474e-06
1.3555e-05
7.25558e-06
1.64816e-06
3.6526e-07
6.18095e-08
5.17755e-09
1.96894e-08
8.09944e-07
1.51622e-05
5.0014e-06
1.44102e-05
9.50223e-06
2.92102e-06
6.93842e-07
1.81051e-07
5.10284e-08
2.29522e-08
8.97343e-07
1.30473e-05
0.310395
0.988185
0.970302
0.969635
0.969506
0.969507
0.969636
0.970303
0.988488
0.310817
0.0620921
0.0182012
0.00667039
0.00659145
0.00657646
0.00657698
0.00660727
0.00667283
0.0181211
0.0626008
0.0170427
0.000601436
4.57541e-05
4.86592e-05
4.76109e-05
4.73028e-05
4.86603e-05
4.61197e-05
0.000600393
0.0171644
0.00607112
0.000220467
9.75707e-07
1.63816e-07
1.01812e-06
3.04301e-07
6.34126e-07
1.01566e-06
0.000220057
0.00612528
0.00265303
9.66695e-05
5.79124e-07
7.99028e-09
6.49029e-09
4.56175e-09
2.92535e-08
7.2124e-07
9.65432e-05
0.00267393
0.00135595
4.33035e-05
1.20448e-06
5.97866e-09
2.09703e-11
9.24915e-12
3.188e-10
1.70821e-07
4.28383e-05
0.00136313
0.000780882
1.93841e-05
9.16435e-07
8.37249e-10
1.28934e-13
4.58799e-13
3.35154e-10
1.20235e-07
1.98443e-05
0.000783648
0.000491374
1.19031e-05
7.6469e-07
1.10743e-09
7.34924e-14
1.11289e-12
1.57325e-10
6.05171e-08
1.02028e-05
0.000493739
0.000331581
7.37268e-06
5.92747e-07
8.4168e-10
6.05497e-14
9.09365e-13
1.34614e-10
4.0034e-08
5.87818e-06
0.000333936
0.000236305
4.69996e-06
2.8678e-07
4.28573e-09
4.15701e-13
2.08111e-12
2.51774e-10
4.2829e-08
4.91551e-06
0.000238908
0.00017591
3.45822e-06
2.93531e-07
4.18309e-09
2.98256e-13
4.98903e-12
3.55484e-10
4.0601e-08
2.471e-06
0.000178847
0.000135321
2.47584e-06
2.27449e-07
1.88467e-09
2.05747e-11
6.77719e-12
3.86027e-10
2.70823e-08
1.36697e-06
0.000138158
0.000107205
1.53092e-06
1.8316e-07
4.4102e-09
2.06214e-11
1.02072e-11
3.97567e-10
1.65366e-08
2.69988e-06
0.000110888
8.71219e-05
3.1973e-06
1.39607e-07
4.29853e-09
1.79211e-11
1.05708e-11
4.58053e-10
6.20444e-08
2.74764e-06
9.02488e-05
7.23821e-05
6.15192e-06
1.19447e-07
2.17662e-09
3.88096e-11
1.81396e-11
5.75201e-10
1.44773e-07
3.118e-06
7.5307e-05
6.10905e-05
5.32215e-06
9.73258e-08
3.44253e-09
6.11773e-11
1.5418e-11
6.89579e-10
8.29849e-08
5.58452e-06
6.43018e-05
5.22783e-05
7.14159e-06
7.01205e-08
2.68051e-09
3.32337e-11
1.56192e-11
5.5412e-10
1.04072e-07
3.49066e-06
5.5647e-05
4.51926e-05
8.14893e-06
1.60492e-07
2.57939e-09
7.33221e-11
1.87386e-11
6.33824e-10
1.32551e-07
4.5783e-06
4.91017e-05
3.93826e-05
8.40857e-06
3.31657e-07
1.91041e-09
3.99383e-11
1.59071e-11
6.97142e-10
1.35852e-07
4.99858e-06
4.3563e-05
3.4464e-05
8.37408e-06
3.88804e-07
9.94126e-09
9.87542e-11
1.66545e-11
6.49951e-10
1.21064e-07
4.68498e-06
3.92978e-05
3.02571e-05
8.39913e-06
5.38021e-07
1.56743e-08
2.4045e-10
3.39399e-11
5.58388e-10
1.02387e-07
4.1501e-06
3.53016e-05
2.65239e-05
8.52701e-06
7.73088e-07
3.66485e-08
1.34278e-09
4.06932e-10
5.08421e-10
8.38955e-08
3.54293e-06
3.23618e-05
2.31861e-05
8.99562e-06
9.76106e-07
6.85598e-08
2.06637e-09
1.83704e-10
4.25412e-10
6.57557e-08
2.97801e-06
2.92535e-05
2.01068e-05
9.2647e-06
1.26508e-06
1.06677e-07
9.72795e-09
1.07328e-10
4.31755e-10
5.35693e-08
2.52722e-06
2.72138e-05
1.72563e-05
9.9953e-06
1.58785e-06
1.80264e-07
1.42665e-08
1.88729e-09
5.05982e-10
4.24862e-08
2.06528e-06
2.45714e-05
1.45625e-05
1.12293e-05
2.23741e-06
2.83537e-07
4.45705e-08
2.93479e-09
9.97103e-10
3.44323e-08
1.76089e-06
2.30457e-05
1.19906e-05
1.18236e-05
3.50251e-06
5.04046e-07
6.37232e-08
1.2977e-08
6.42476e-10
2.80165e-08
1.38095e-06
2.05059e-05
9.49479e-06
1.2494e-05
5.20389e-06
9.71602e-07
1.79605e-07
2.21143e-08
5.48279e-09
1.95112e-08
1.196e-06
1.89714e-05
7.16125e-06
1.34168e-05
7.11487e-06
1.60477e-06
3.09305e-07
7.48058e-08
8.20943e-09
1.86612e-08
8.15339e-07
1.51114e-05
4.99201e-06
1.43561e-05
9.43958e-06
2.87622e-06
7.15317e-07
1.66012e-07
4.58496e-08
2.62798e-08
9.04264e-07
1.31679e-05
0.31047
0.988304
0.970427
0.969763
0.969634
0.96964
0.969767
0.970427
0.988607
0.310889
0.0622259
0.0181765
0.00687819
0.00662207
0.00659001
0.00668551
0.00660368
0.00670701
0.018111
0.0627343
0.0171276
0.000602085
3.37757e-05
4.82837e-05
4.84446e-05
3.17453e-05
4.89549e-05
4.35657e-05
0.00060092
0.0172496
0.00611764
0.000220262
4.61352e-07
5.69518e-07
1.58884e-07
1.56504e-07
3.08548e-07
6.42686e-07
0.000220241
0.00617211
0.0026783
9.63714e-05
6.27921e-07
1.97441e-08
1.12864e-08
2.03134e-09
5.53982e-08
2.1033e-07
9.62047e-05
0.00269899
0.00137098
4.30027e-05
1.10525e-06
1.92639e-10
7.02188e-10
3.69303e-11
3.63978e-08
2.50109e-07
4.31092e-05
0.0013778
0.000790187
2.04249e-05
6.82777e-07
1.02437e-09
1.36052e-10
2.31379e-10
2.10073e-08
1.41945e-07
1.99498e-05
0.000793149
0.000497863
1.06389e-05
3.06866e-07
2.18022e-09
1.34984e-10
5.46452e-10
1.83001e-08
6.85958e-08
1.03193e-05
0.000500134
0.000336527
6.84339e-06
2.47158e-07
1.40682e-09
1.61348e-10
4.86701e-10
6.22864e-09
4.26921e-08
5.84905e-06
0.000338355
0.000239822
4.10318e-06
1.82049e-07
2.57706e-09
6.69625e-11
5.47639e-10
4.22509e-09
3.75499e-08
5.2802e-06
0.000242316
0.000178648
6.32944e-06
1.05036e-07
1.66574e-09
8.28447e-11
1.36568e-09
2.74268e-09
3.33546e-08
2.4647e-06
0.000181055
0.000137606
8.06023e-06
5.9228e-08
7.58981e-10
2.02422e-10
1.81353e-09
2.15806e-09
6.5635e-08
3.27981e-06
0.000140447
0.000109096
6.83767e-06
7.75218e-08
1.2056e-09
3.70316e-10
1.90148e-09
1.45103e-09
7.37833e-08
3.74319e-06
0.000111869
8.86643e-05
9.64774e-06
9.26964e-08
1.05833e-09
3.93542e-10
2.44755e-09
8.47484e-10
1.01773e-07
5.25686e-06
9.18576e-05
7.35159e-05
8.56541e-06
1.60107e-07
1.72906e-09
5.84154e-10
2.56909e-09
6.32719e-10
1.64215e-07
5.11799e-06
7.68745e-05
6.19418e-05
9.24765e-06
1.5434e-07
1.56804e-09
7.10535e-10
2.61747e-09
6.66973e-10
1.02461e-07
6.62267e-06
6.54569e-05
5.28879e-05
7.81797e-06
3.08633e-07
5.60814e-09
8.57516e-10
2.65507e-09
1.43167e-09
1.03449e-07
4.51079e-06
5.65909e-05
4.56165e-05
8.28801e-06
2.91798e-07
7.82644e-09
9.49866e-10
2.62774e-09
2.04678e-09
1.07979e-07
5.41289e-06
4.98846e-05
3.96765e-05
8.41666e-06
3.44772e-07
1.05079e-08
1.32961e-09
2.43264e-09
2.57313e-09
1.33485e-07
5.35824e-06
4.42146e-05
3.46938e-05
8.51642e-06
4.74963e-07
1.8434e-08
1.32925e-09
2.50449e-09
2.99542e-09
1.27458e-07
4.85034e-06
3.98892e-05
3.04089e-05
8.45112e-06
6.58555e-07
3.26397e-08
2.58111e-09
2.3938e-09
3.35137e-09
1.07409e-07
4.23853e-06
3.58398e-05
2.66316e-05
8.63015e-06
8.42009e-07
5.46137e-08
3.40059e-09
2.73368e-09
3.4465e-09
8.90799e-08
3.69604e-06
3.29408e-05
2.32761e-05
9.01417e-06
1.04095e-06
8.07022e-08
8.61069e-09
2.9147e-09
4.06129e-09
7.27794e-08
3.15546e-06
2.97958e-05
2.01884e-05
9.5856e-06
1.39893e-06
1.35071e-07
1.15514e-08
4.44135e-09
4.2303e-09
6.07377e-08
2.73394e-06
2.78094e-05
1.73429e-05
1.05499e-05
1.7633e-06
2.12788e-07
2.98023e-08
5.29378e-09
5.48553e-09
4.94029e-08
2.28245e-06
2.51309e-05
1.46722e-05
1.175e-05
2.45059e-06
3.45507e-07
4.28069e-08
1.17608e-08
6.23825e-09
4.29843e-08
1.9743e-06
2.37035e-05
1.21106e-05
1.21839e-05
3.85419e-06
5.68754e-07
1.03079e-07
1.5957e-08
1.09113e-08
3.40169e-08
1.54477e-06
2.09483e-05
9.69278e-06
1.29291e-05
5.63174e-06
1.12827e-06
1.84115e-07
4.63018e-08
1.43015e-08
3.14064e-08
1.30356e-06
1.95025e-05
7.39894e-06
1.36503e-05
7.39946e-06
1.75197e-06
3.93255e-07
7.73115e-08
3.29011e-08
3.27062e-08
9.12637e-07
1.54295e-05
5.4102e-06
1.46881e-05
9.81752e-06
3.07934e-06
7.7019e-07
2.18242e-07
6.34783e-08
5.61457e-08
9.63519e-07
1.34369e-05
0.310764
0.988977
0.971069
0.970426
0.970304
0.970303
0.970427
0.97107
0.989279
0.311176
0.0626712
0.0187245
0.00684705
0.00669124
0.00675016
0.00667293
0.00668273
0.00680761
0.0186418
0.0631796
0.0173596
0.000609481
3.11198e-05
4.60015e-05
3.302e-05
4.60564e-05
4.61679e-05
3.5476e-05
0.000608248
0.0174858
0.00622747
0.000218967
5.82204e-07
1.00126e-06
2.81751e-07
9.42375e-07
1.11397e-06
7.69175e-07
0.000219072
0.00628502
0.00272803
9.48613e-05
1.6414e-06
8.43687e-07
1.01409e-06
7.46918e-07
6.64554e-07
1.30871e-06
9.47375e-05
0.00274944
0.00139562
4.22495e-05
6.21101e-07
1.32028e-07
2.59355e-07
2.08346e-07
1.48995e-07
6.5927e-07
4.23547e-05
0.00140245
0.000803598
2.00029e-05
3.81916e-07
8.45763e-08
9.75074e-08
7.20155e-08
7.18954e-08
2.27869e-07
1.93704e-05
0.000806005
0.000506064
1.06523e-05
3.25637e-07
5.62625e-08
7.31225e-08
9.33702e-08
2.17208e-07
1.38199e-07
1.09382e-05
0.000507886
0.000341615
5.8976e-06
1.70753e-07
6.87399e-08
3.51833e-08
6.51552e-08
1.89844e-07
8.86387e-08
6.27167e-06
0.000343073
0.000243638
5.44595e-06
1.15833e-07
4.59172e-08
2.56026e-08
6.89048e-08
7.45954e-08
8.93913e-08
3.96051e-06
0.000245325
0.000181113
2.50002e-06
6.93849e-08
4.86344e-08
1.98825e-08
1.12974e-07
5.23094e-08
1.12902e-07
2.3155e-06
0.000182427
0.000139448
4.08224e-06
4.37981e-08
8.85512e-08
4.07168e-08
9.68686e-08
7.18483e-08
1.26202e-07
4.31213e-06
0.000142085
0.000110609
4.37065e-06
4.73243e-08
5.13288e-08
3.98246e-08
2.1819e-07
8.66704e-08
1.29436e-07
5.15842e-06
0.000111698
8.99061e-05
6.93305e-06
9.46165e-08
8.73551e-08
5.75109e-08
2.45827e-07
2.00126e-07
1.49963e-07
5.05014e-06
9.30322e-05
7.44959e-05
5.83593e-06
1.19957e-07
1.59498e-07
6.84422e-08
2.49051e-07
1.07773e-07
2.03414e-07
6.77452e-06
7.58939e-05
6.27643e-05
5.96586e-06
2.4793e-07
1.13512e-07
7.41656e-08
2.30319e-07
8.83565e-08
2.99699e-07
3.83482e-06
6.36864e-05
5.35792e-05
6.38734e-06
2.54177e-07
1.72259e-07
7.61477e-08
2.25767e-07
1.78973e-07
2.25195e-07
4.36428e-06
5.48602e-05
4.62142e-05
6.86364e-06
3.75348e-07
2.04245e-07
1.08942e-07
2.17147e-07
2.25635e-07
2.34629e-07
5.68149e-06
4.84861e-05
4.01791e-05
6.56038e-06
4.65454e-07
2.20063e-07
1.06403e-07
2.03768e-07
2.38349e-07
2.83792e-07
5.8379e-06
4.32229e-05
3.51085e-05
6.92609e-06
5.64343e-07
2.15499e-07
1.16126e-07
1.84475e-07
2.3909e-07
2.98005e-07
5.31792e-06
3.91213e-05
3.07783e-05
7.58016e-06
6.84867e-07
2.33019e-07
1.26166e-07
1.75195e-07
2.29746e-07
2.75248e-07
4.6507e-06
3.5271e-05
2.69583e-05
8.32974e-06
8.84913e-07
2.58305e-07
1.39149e-07
1.71925e-07
2.2555e-07
2.61249e-07
4.0221e-06
3.24263e-05
2.35545e-05
9.20975e-06
1.1341e-06
3.0288e-07
1.60779e-07
1.74705e-07
2.25339e-07
2.50259e-07
3.46331e-06
2.94005e-05
2.0396e-05
9.93856e-06
1.56586e-06
3.76896e-07
1.88159e-07
1.85979e-07
2.2874e-07
2.60129e-07
2.97242e-06
2.73971e-05
1.74638e-05
1.12378e-05
2.02227e-06
4.97447e-07
2.39765e-07
2.07532e-07
2.42747e-07
2.65996e-07
2.58215e-06
2.48667e-05
1.46335e-05
1.23549e-05
2.93336e-06
6.83732e-07
3.09872e-07
2.46758e-07
2.68871e-07
2.86887e-07
2.19006e-06
2.3367e-05
1.18929e-05
1.30913e-05
4.55045e-06
1.06219e-06
4.30762e-07
3.07193e-07
3.22298e-07
3.35531e-07
1.93873e-06
2.09811e-05
9.19442e-06
1.41198e-05
6.77692e-06
1.70256e-06
6.52879e-07
4.18059e-07
3.99218e-07
4.04857e-07
1.58482e-06
1.92187e-05
6.83133e-06
1.57612e-05
9.47923e-06
2.9374e-06
1.10393e-06
6.37151e-07
5.46291e-07
5.67596e-07
1.65127e-06
1.62439e-05
5.34364e-06
1.7907e-05
1.38799e-05
5.56715e-06
2.13409e-06
1.04388e-06
8.01117e-07
7.95494e-07
2.11947e-06
1.35178e-05
0.311905
0.99383
0.989286
0.98861
0.988489
0.98849
0.98861
0.989282
0.994164
0.312301
0.0636281
0.0647418
0.0186353
0.0181281
0.0181501
0.0181526
0.0181392
0.0186679
0.0642925
0.0641199
0.0177015
0.00299796
0.00061003
0.000602145
0.000600927
0.000600663
0.000601214
0.000608625
0.00294484
0.0178575
0.00637084
0.000355982
0.000221574
0.000222163
0.000221085
0.000220063
0.000220297
0.000219066
0.000346834
0.00644745
0.00278159
0.000124368
9.67249e-05
9.72991e-05
9.69174e-05
9.60199e-05
9.60212e-05
9.47774e-05
0.000121667
0.00281368
0.00141086
6.18634e-05
4.35888e-05
4.3689e-05
4.36347e-05
4.34944e-05
4.35868e-05
4.24053e-05
5.97326e-05
0.00142089
0.000804505
3.91294e-05
1.91812e-05
2.02541e-05
1.95151e-05
1.93779e-05
1.92165e-05
1.94867e-05
3.63889e-05
0.000807349
0.00050173
2.57602e-05
1.16813e-05
1.04768e-05
1.09604e-05
1.15621e-05
1.1957e-05
1.10393e-05
2.4464e-05
0.000502196
0.000335529
3.01546e-05
6.97672e-06
6.58344e-06
6.45771e-06
6.88377e-06
7.39007e-06
6.28198e-06
1.57462e-05
0.000335692
0.000237457
3.12727e-05
4.26804e-06
3.97287e-06
3.91678e-06
4.5484e-06