/*--------------------------------*- C++ -*----------------------------------*\
| =========                 |                                                 |
| \\      /  F ield         | OpenFOAM: The Open Source CFD Toolbox           |
|  \\    /   O peration     | Version:  4.1                                   |
|   \\  /    A nd           | Web:      www.OpenFOAM.org                      |
|    \\/     M anipulation  |                                                 |
\*---------------------------------------------------------------------------*/
FoamFile
{
    version     2.0;
    format      ascii;
    class       volScalarField;
    location    "500";
    object      k;
}
// * * * * * * * * * * * * * * * * * * * * * * * * * * * * * * * * * * * * * //

dimensions      [0 2 -2 0 0 0 0];

internalField   nonuniform List<scalar> 
12000
(
0.116488
0.113542
0.113248
0.113173
0.113154
0.113154
0.113172
0.113247
0.113588
0.116543
0.0404858
0.0398076
0.0395118
0.0393302
0.0392744
0.0392746
0.0393303
0.0395055
0.0397898
0.0404548
0.01694
0.0169614
0.0167698
0.0166237
0.0165695
0.0165699
0.0166248
0.0167713
0.0169587
0.0169391
0.00839432
0.00855733
0.0084521
0.0083589
0.00831841
0.00831879
0.00836056
0.0084561
0.00855589
0.00839723
0.00477438
0.00493096
0.00487945
0.00482095
0.00479142
0.00479209
0.00482283
0.00488464
0.00493083
0.00477936
0.00301615
0.00314324
0.00312418
0.00308632
0.0030643
0.00306473
0.00308804
0.00312802
0.00314376
0.00302302
0.00206319
0.0021637
0.00216364
0.0021384
0.00212156
0.00212207
0.00213948
0.00216608
0.00216593
0.00207087
0.00150036
0.00158113
0.0015904
0.00157325
0.00155971
0.00156041
0.00157476
0.00159271
0.00158189
0.00150806
0.00114373
0.00120909
0.00122474
0.00121194
0.00120189
0.00120187
0.00121319
0.0012266
0.00121224
0.00115179
0.000904833
0.000960228
0.000977735
0.000968761
0.000960128
0.000960904
0.000969936
0.0009806
0.000964293
0.000913593
0.000737355
0.000785549
0.000803237
0.000796714
0.000789419
0.000790134
0.00079806
0.0008061
0.000786587
0.000746774
0.000614954
0.000654459
0.000675552
0.000671263
0.000665339
0.000666642
0.000672991
0.0006793
0.000659857
0.000625844
0.000523171
0.000559901
0.000579186
0.000576338
0.000570761
0.000572763
0.000578124
0.000583484
0.000565912
0.000535485
0.000452213
0.000487575
0.000504566
0.000502825
0.000500103
0.000499531
0.000504918
0.000509585
0.000493711
0.000466155
0.000395978
0.000430333
0.000446172
0.000444436
0.000435857
0.000441984
0.000446533
0.000451532
0.000437227
0.00041195
0.000350429
0.000384067
0.000399892
0.000398345
0.000392723
0.000396702
0.000400992
0.000405669
0.000391897
0.000368767
0.000312743
0.000345997
0.000362018
0.000360888
0.000357626
0.000360196
0.000364127
0.000368486
0.000355347
0.000334057
0.00028085
0.000314012
0.000330333
0.000329807
0.000328298
0.000330434
0.000334013
0.000338034
0.000325374
0.000305664
0.000253227
0.000286752
0.000303441
0.000303627
0.000303282
0.000305141
0.000308722
0.000312904
0.000301008
0.000282627
0.000228603
0.000262845
0.000280313
0.000281336
0.000282018
0.000284226
0.000287654
0.000291779
0.000280709
0.000263402
0.000205988
0.000241496
0.000259998
0.000262027
0.000263311
0.000265746
0.000269442
0.000274169
0.000264428
0.000248099
0.000184338
0.000221571
0.00024172
0.000245126
0.000247344
0.000250591
0.000254238
0.00025907
0.000250659
0.000235088
0.000162702
0.000202155
0.000224908
0.000229904
0.000232593
0.000236273
0.000240795
0.000246679
0.000240216
0.000225538
0.000139776
0.000182356
0.000208677
0.000216128
0.000220172
0.000224941
0.000229513
0.000235808
0.000231093
0.000217342
0.000114156
0.000160132
0.000192295
0.00020266
0.000207471
0.000212934
0.000219241
0.000227343
0.000225073
0.000212812
8.24294e-05
0.000134378
0.0001741
0.000189645
0.000196997
0.000203729
0.000209999
0.000219379
0.000219138
0.000209071
4.50512e-05
0.000101131
0.000152239
0.000173751
0.000183552
0.000192257
0.000201399
0.000213809
0.000216562
0.00020973
3.09138e-05
6.69684e-05
0.000121452
0.00015499
0.000171965
0.000182315
0.000191265
0.000206489
0.000213901
0.000211089
4.23101e-05
6.04771e-05
8.09836e-05
0.000112056
0.000146152
0.000168397
0.000181021
0.000200489
0.00021326
0.000217605
6.77367e-05
8.65586e-05
9.26302e-05
9.36175e-05
0.000104209
0.000125581
0.000157668
0.000184548
0.000210354
0.000226931
0.113541
0.0166977
0.0146765
0.0146696
0.0146712
0.0146712
0.0146696
0.0146765
0.0166886
0.113496
0.039806
0.00105506
0.000689904
0.000687327
0.000686727
0.000686707
0.000687198
0.000689741
0.00105516
0.039606
0.0169592
0.00063908
0.000302772
0.000288116
0.00028922
0.000289565
0.000288877
0.000303446
0.000644587
0.0168848
0.00855491
0.00083618
0.000135736
0.000123854
0.000125582
0.000125364
0.000125793
0.000137128
0.000835142
0.0085282
0.00492836
0.000696654
8.17206e-05
7.67451e-05
7.59454e-05
8.09993e-05
7.57298e-05
8.47941e-05
0.000688881
0.00493278
0.0031405
0.00049956
6.19311e-05
5.60805e-05
5.95765e-05
5.34883e-05
6.04977e-05
6.22267e-05
0.000489554
0.00315604
0.00216084
0.000366915
5.55116e-05
5.53192e-05
5.61724e-05
6.22093e-05
5.60192e-05
6.25834e-05
0.000353488
0.00217678
0.00157811
0.000290059
5.56023e-05
5.5557e-05
4.72844e-05
5.13627e-05
6.21028e-05
6.23513e-05
0.000237728
0.00159035
0.00120587
0.000199916
6.29426e-05
3.72856e-05
6.73892e-05
5.58888e-05
6.16491e-05
4.59711e-05
0.000260804
0.00121702
0.000956743
0.000211615
6.07629e-05
5.54623e-05
6.53695e-05
6.11502e-05
6.38644e-05
6.3184e-05
0.000248759
0.000967434
0.000781775
0.000177099
4.65446e-05
4.13298e-05
4.95316e-05
5.97759e-05
6.20044e-05
4.86397e-05
0.000197137
0.000789798
0.000650278
0.000165785
4.5736e-05
3.52447e-05
5.24652e-05
5.93775e-05
5.97207e-05
4.13847e-05
0.000196127
0.000662718
0.000555302
0.000171469
4.15637e-05
3.27195e-05
4.88917e-05
5.80052e-05
5.25878e-05
3.88251e-05
0.000177893
0.000568913
0.000482447
0.000167906
5.52257e-05
3.79051e-05
5.01819e-05
5.17663e-05
4.3923e-05
4.06616e-05
0.000170575
0.000497058
0.000424579
0.000166072
5.75345e-05
4.06783e-05
6.02032e-05
5.29483e-05
4.68393e-05
4.28619e-05
0.000161204
0.000440873
0.000377551
0.000162413
6.29984e-05
4.433e-05
6.12149e-05
4.90019e-05
5.00963e-05
4.47345e-05
0.000144063
0.000395856
0.000338636
0.000156871
6.51298e-05
4.67282e-05
5.97569e-05
5.08723e-05
5.01412e-05
4.79045e-05
0.000133712
0.000358923
0.000305677
0.000150098
6.59969e-05
4.77369e-05
5.94031e-05
4.99112e-05
5.07606e-05
5.30971e-05
0.000122343
0.00032868
0.000277396
0.000148436
6.45133e-05
4.81264e-05
5.89511e-05
4.82066e-05
5.01501e-05
5.05044e-05
0.000115271
0.000303045
0.000252355
0.000145728
6.63497e-05
4.84949e-05
5.79275e-05
4.72929e-05
4.90413e-05
5.22604e-05
0.00010766
0.000282082
0.000229983
0.000147271
6.63889e-05
4.90874e-05
5.58026e-05
4.74308e-05
4.83944e-05
5.25634e-05
0.000101985
0.000263536
0.000209098
0.000148699
6.85759e-05
5.04251e-05
5.49314e-05
4.80436e-05
4.82814e-05
5.18494e-05
9.68617e-05
0.000248895
0.000189278
0.000154789
7.21348e-05
5.20216e-05
5.50507e-05
4.96051e-05
4.92051e-05
5.29355e-05
9.11605e-05
0.000235147
0.000169637
0.000160591
8.29956e-05
5.62369e-05
5.60994e-05
5.12307e-05
5.04569e-05
5.39053e-05
8.80829e-05
0.00022492
0.000149229
0.000166733
9.65994e-05
6.10725e-05
5.90129e-05
5.44511e-05
5.3325e-05
5.64322e-05
8.25827e-05
0.00021417
0.000126753
0.000175591
0.00011981
7.34097e-05
6.19066e-05
5.77532e-05
5.64742e-05
5.91789e-05
8.43046e-05
0.000207354
0.000101463
0.000188767
0.000139437
8.50359e-05
7.05891e-05
6.48086e-05
6.35775e-05
6.51678e-05
8.50641e-05
0.000198786
7.36976e-05
0.000206094
0.000171749
0.000108734
8.25745e-05
7.30301e-05
7.0538e-05
7.23624e-05
8.73214e-05
0.000194725
5.93536e-05
0.000234371
0.000213016
0.000139052
0.000104535
9.09271e-05
8.52534e-05
8.66925e-05
0.000105144
0.000181067
6.22991e-05
0.00025834
0.000269441
0.000204022
0.000136757
0.000109585
0.000103467
0.000105294
0.000145178
0.000195474
0.113247
0.014677
0.0128281
0.0128254
0.0128257
0.0128257
0.0128254
0.012828
0.0146717
0.113134
0.0395103
0.000690202
0.000245738
0.00024282
0.000242761
0.000242873
0.000242963
0.000244892
0.000690422
0.0392822
0.0167676
0.000304029
6.07106e-06
5.53876e-06
5.49043e-06
5.48364e-06
5.62067e-06
5.43292e-06
0.000302219
0.0166981
0.00844932
0.000137177
4.69418e-07
2.67629e-07
2.5757e-07
2.52971e-07
2.88751e-07
5.66609e-07
0.000134064
0.0084217
0.00487651
8.29564e-05
5.50328e-08
1.93666e-08
2.19522e-08
1.94228e-08
3.91314e-08
3.39285e-08
8.21236e-05
0.00487223
0.00312116
6.4124e-05
7.00773e-08
2.3385e-08
2.75363e-08
2.27724e-08
1.25517e-08
3.94525e-08
5.68277e-05
0.0031268
0.00216066
5.79752e-05
1.07845e-07
2.94696e-08
1.22086e-08
1.82246e-08
1.18765e-08
1.01565e-07
5.63667e-05
0.00216874
0.00158696
4.56573e-05
7.77146e-08
4.90956e-08
1.79698e-08
3.16656e-08
2.04153e-08
1.38291e-07
4.27727e-05
0.00159588
0.00122131
6.64591e-05
1.10809e-07
6.10572e-08
3.40251e-08
5.17366e-08
7.83449e-08
1.67766e-07
5.12026e-05
0.00122872
0.000974173
6.58312e-05
1.20163e-07
7.3668e-08
5.02709e-08
4.68654e-08
4.85787e-08
2.33252e-07
4.9494e-05
0.000980633
0.000799914
5.18731e-05
3.12361e-07
1.13988e-07
4.83386e-08
5.7e-08
3.29688e-08
3.25685e-07
4.91236e-05
0.000805858
0.000672043
4.29766e-05
3.12078e-07
1.397e-07
7.40583e-08
8.39527e-08
3.94552e-08
3.2077e-07
5.00371e-05
0.000678762
0.00057584
4.26828e-05
3.50121e-07
1.41461e-07
2.26567e-07
9.53283e-08
5.33959e-08
3.39532e-07
3.78157e-05
0.000582813
0.00050044
4.3886e-05
5.34445e-07
1.88958e-07
4.31368e-06
1.22093e-07
1.37681e-07
4.64707e-07
3.22779e-05
0.000508685
0.000441482
4.90669e-05
9.28697e-07
3.11353e-07
1.04459e-06
4.31853e-07
2.01392e-07
5.51655e-07
3.75493e-05
0.000449871
0.000393761
5.79794e-05
1.1735e-06
3.90466e-07
8.76903e-07
4.81966e-07
2.57758e-07
6.82487e-07
3.83796e-05
0.000403842
0.000354498
6.15602e-05
1.85038e-06
4.56324e-07
7.97582e-07
4.01198e-07
2.50978e-07
9.53881e-07
4.1491e-05
0.000365888
0.000321398
6.43735e-05
2.56663e-06
5.70056e-07
7.59574e-07
4.49366e-07
3.59563e-07
1.22332e-06
4.05125e-05
0.000335459
0.000292905
6.73286e-05
3.59141e-06
7.35636e-07
1.02833e-06
5.08237e-07
4.43766e-07
1.44124e-06
4.13544e-05
0.000308821
0.00026767
6.90902e-05
4.59766e-06
9.35703e-07
1.24008e-06
7.11294e-07
4.41372e-07
1.49817e-06
4.07787e-05
0.000287676
0.000245059
7.64619e-05
6.60257e-06
1.24443e-06
1.57477e-06
9.72065e-07
7.14601e-07
1.73021e-06
3.87269e-05
0.000267528
0.000224155
8.2566e-05
9.32461e-06
1.71745e-06
1.819e-06
1.35113e-06
8.00394e-07
1.83386e-06
3.66888e-05
0.000252343
0.000204607
9.50112e-05
1.29698e-05
2.55454e-06
2.32258e-06
1.73348e-06
1.25446e-06
2.16043e-06
3.34704e-05
0.000235949
0.000185617
0.000104897
1.86346e-05
3.78705e-06
2.80281e-06
2.25198e-06
1.73832e-06
2.4362e-06
3.12815e-05
0.000224945
0.000167052
0.000122657
2.50486e-05
5.84399e-06
3.80758e-06
2.77948e-06
2.44241e-06
2.99548e-06
2.66588e-05
0.00021016
0.000148272
0.000135182
3.81476e-05
8.65497e-06
4.83012e-06
3.60829e-06
3.17386e-06
3.47726e-06
2.42491e-05
0.000201202
0.000128866
0.000145549
5.96871e-05
1.44141e-05
6.87e-06
4.57973e-06
4.32231e-06
4.52392e-06
1.91763e-05
0.000186515
0.000108355
0.000159232
8.52367e-05
2.33571e-05
1.01574e-05
6.51603e-06
5.57627e-06
5.57363e-06
1.97054e-05
0.000177756
8.85716e-05
0.000176761
0.000118837
3.92788e-05
1.57437e-05
9.36812e-06
7.83356e-06
7.6951e-06
1.87712e-05
0.000156465
7.47597e-05
0.000199046
0.000161982
7.25675e-05
2.90246e-05
1.49806e-05
1.09081e-05
1.04407e-05
2.22928e-05
0.000142947
0.113172
0.01467
0.0128254
0.0128227
0.012823
0.012823
0.0128227
0.0128254
0.0146648
0.113056
0.0393287
0.0006876
0.000242743
0.000240213
0.000239948
0.000239945
0.000240474
0.00024346
0.000687755
0.0391033
0.0166214
0.000289462
5.56946e-06
5.01053e-06
5.05479e-06
5.0295e-06
5.05955e-06
5.44984e-06
0.000287939
0.0165554
0.00835605
0.000125315
2.78452e-07
4.0592e-08
2.09932e-08
4.84961e-08
2.54394e-08
1.88913e-07
0.000121917
0.00832952
0.0048178
7.8378e-05
3.23255e-08
1.36515e-10
2.10254e-12
1.56096e-10
1.6522e-12
1.88296e-07
7.79199e-05
0.00481263
0.00308314
5.85327e-05
1.82387e-08
1.19054e-11
9.29001e-13
4.22696e-12
1.80627e-13
1.9445e-08
5.02076e-05
0.00308726
0.00213486
5.57342e-05
2.15456e-08
5.81883e-12
3.13285e-12
5.23195e-12
3.37257e-12
8.61871e-08
4.99392e-05
0.00214172
0.00156952
5.74308e-05
3.36186e-08
5.15792e-12
2.7289e-12
5.78715e-12
2.99355e-12
6.03823e-08
4.12841e-05
0.00157687
0.00120857
6.9197e-05
4.84551e-08
5.98604e-12
7.4211e-12
1.28012e-11
1.09652e-10
2.52902e-07
6.22218e-05
0.00121581
0.000964604
5.48905e-05
7.22179e-08
2.15413e-11
5.65657e-12
1.35405e-11
2.51805e-11
2.8891e-07
6.30334e-05
0.000972681
0.000792037
4.83786e-05
1.34964e-07
5.82666e-11
2.51124e-12
9.91207e-12
8.32522e-12
3.00159e-07
4.68775e-05
0.000801043
0.000665712
4.76863e-05
1.87863e-07
1.2572e-10
4.321e-12
1.6311e-11
3.03152e-11
3.77139e-07
5.21934e-05
0.000676215
0.000569587
5.43187e-05
4.23671e-07
4.17486e-10
3.11616e-11
2.55976e-11
8.53808e-11
4.10302e-07
4.9116e-05
0.000582584
0.000495091
6.02728e-05
5.94097e-07
1.48254e-09
5.30197e-11
4.81111e-11
3.52979e-10
4.7943e-07
4.3437e-05
0.000509154
0.000436854
6.49269e-05
1.0454e-06
7.65085e-09
1.14761e-09
9.35315e-11
6.24831e-10
5.60477e-07
4.43803e-05
0.000450814
0.000389712
7.17479e-05
1.51647e-06
6.24538e-09
1.17829e-09
7.51586e-11
7.59155e-10
9.13349e-07
4.45017e-05
0.000405238
0.000350869
7.74945e-05
2.08347e-06
3.84439e-08
3.52624e-09
1.23264e-10
8.48733e-10
8.3715e-07
4.53995e-05
0.000367644
0.00031818
7.95462e-05
3.04621e-06
5.27873e-08
3.46273e-09
3.95454e-10
1.16487e-09
9.704e-07
4.29829e-05
0.000337647
0.000290099
8.11945e-05
3.88565e-06
1.21335e-07
5.06993e-09
8.25478e-10
2.42092e-09
1.03756e-06
4.26597e-05
0.000311241
0.000265315
8.41745e-05
5.11959e-06
1.6267e-07
1.00383e-08
1.78155e-09
3.57092e-09
1.02897e-06
4.15579e-05
0.000290468
0.000243125
8.77768e-05
6.90258e-06
2.65028e-07
1.33537e-08
3.4042e-09
4.33193e-09
9.63652e-07
3.8571e-05
0.000270324
0.000222647
9.15247e-05
9.36846e-06
5.34474e-07
3.811e-08
7.76086e-09
6.94647e-09
8.97322e-07
3.62991e-05
0.000255356
0.000203465
9.93173e-05
1.26042e-05
8.90952e-07
5.767e-08
1.62723e-08
1.27979e-08
7.88229e-07
3.27541e-05
0.000238842
0.00018502
0.000107436
1.77588e-05
1.76109e-06
1.7043e-07
2.78697e-08
2.31518e-08
7.10591e-07
2.92555e-05
0.000227443
0.000167073
0.000122324
2.34607e-05
2.88708e-06
2.82081e-07
6.44752e-08
3.69599e-08
5.86941e-07
2.51918e-05
0.000212729
0.000149327
0.000133172
3.54248e-05
5.13239e-06
7.14466e-07
1.07101e-07
6.35045e-08
4.88152e-07
2.09483e-05
0.000202431
0.000131241
0.000140237
5.3341e-05
8.81738e-06
1.26277e-06
2.81667e-07
9.98732e-08
4.23831e-07
1.80853e-05
0.000188276
0.00011289
0.00014998
7.56951e-05
1.70609e-05
3.01584e-06
5.31847e-07
2.15466e-07
3.72765e-07
1.53407e-05
0.000175366
9.41311e-05
0.00015962
9.7677e-05
2.62566e-05
5.87733e-06
1.43337e-06
3.45586e-07
4.14428e-07
1.13077e-05
0.000157065
7.61032e-05
0.000172766
0.000128701
4.5086e-05
1.18578e-05
3.1338e-06
9.8315e-07
6.89519e-07
1.01778e-05
0.000128075
0.113154
0.0146716
0.0128257
0.012823
0.0128232
0.0128232
0.012823
0.0128256
0.0146664
0.113037
0.0392728
0.000686936
0.000242872
0.000239909
0.000239424
0.00023945
0.000239947
0.000242503
0.000687295
0.0390479
0.016567
0.000290734
5.48856e-06
5.02409e-06
5.03031e-06
5.0918e-06
5.02418e-06
5.55883e-06
0.000288753
0.0165018
0.00831525
0.000126695
2.41847e-07
5.18005e-08
2.06358e-08
3.41882e-08
7.08141e-08
1.74113e-07
0.000123976
0.00828962
0.00478799
7.8538e-05
3.02342e-08
8.77398e-11
3.80934e-11
8.84974e-11
5.02597e-12
1.45781e-08
7.81651e-05
0.00478321
0.00306062
5.84327e-05
1.35528e-08
2.65383e-12
5.81668e-14
1.07331e-14
9.38615e-13
3.70073e-08
5.44669e-05
0.00306503
0.00211768
6.16298e-05
1.71879e-08
7.29183e-12
1.65071e-15
1e-15
2.95519e-12
8.68307e-08
5.02468e-05
0.00212439
0.00155551
5.37645e-05
3.56192e-08
4.04212e-12
1e-15
1e-15
2.17074e-11
1.66991e-07
4.89591e-05
0.00156333
0.00119753
7.18531e-05
2.97733e-08
2.20051e-12
1e-15
4.08915e-15
3.55791e-11
1.45941e-07
3.42743e-05
0.00120485
0.000955761
7.1716e-05
2.51801e-08
5.35306e-12
1.62348e-15
2.60541e-14
1.16894e-10
2.49056e-07
5.96906e-05
0.000964067
0.000785076
5.79685e-05
6.65077e-08
1.8928e-11
8.20839e-15
7.91227e-15
1.11045e-10
2.58759e-07
4.75128e-05
0.000793902
0.000659848
4.40212e-05
8.5788e-08
4.74329e-11
3.53551e-14
9.03535e-15
4.79076e-10
2.79842e-07
3.92619e-05
0.00067042
0.00056575
5.20285e-05
1.08441e-07
5.6735e-11
1.30864e-14
5.09433e-14
9.75709e-10
5.83604e-07
4.14831e-05
0.000577092
0.000491781
5.11385e-05
3.73817e-07
3.67508e-10
3.97748e-13
3.25887e-14
1.45334e-09
8.1154e-07
4.62005e-05
0.000502361
0.000433706
5.33447e-05
2.96136e-07
7.81005e-10
1.93895e-12
2.16428e-13
2.88632e-09
1.00883e-06
4.71846e-05
0.00044535
0.000387063
5.65719e-05
1.0658e-06
6.57596e-09
2.08123e-11
3.66586e-13
3.96573e-09
1.21294e-06
5.54762e-05
0.00040064
0.000348504
5.9973e-05
1.129e-06
1.41036e-08
4.3434e-11
5.0203e-13
4.56944e-09
1.50763e-06
5.19939e-05
0.000363615
0.000316081
6.27797e-05
1.39461e-06
2.28766e-08
2.07417e-10
4.44755e-12
4.92456e-09
1.471e-06
5.50585e-05
0.000334364
0.000288274
6.74308e-05
2.3437e-06
4.62279e-08
1.06123e-10
3.43422e-12
6.69849e-09
1.6077e-06
5.44683e-05
0.000308551
0.000263748
7.02941e-05
3.32561e-06
1.07761e-07
3.43735e-09
6.40267e-11
7.21553e-09
1.582e-06
5.18164e-05
0.000288376
0.000241772
7.76524e-05
5.55553e-06
2.06606e-07
3.684e-09
1.19153e-10
6.47364e-09
1.48446e-06
4.73355e-05
0.000268682
0.000221506
8.3042e-05
7.87067e-06
4.2086e-07
1.9098e-08
2.01627e-10
5.18335e-09
1.24624e-06
4.15457e-05
0.000253869
0.000202614
9.48102e-05
1.16664e-05
8.43527e-07
3.77589e-08
1.83113e-09
5.52784e-09
1.03336e-06
3.77816e-05
0.000237702
0.000184343
0.000103227
1.6312e-05
1.54679e-06
1.32298e-07
4.06122e-09
5.70214e-09
8.19727e-07
3.1109e-05
0.000226245
0.000166606
0.000119747
2.23445e-05
2.6774e-06
2.32011e-07
2.69414e-08
6.72993e-09
6.60184e-07
2.69861e-05
0.000211599
0.000148819
0.000130427
3.27518e-05
4.62118e-06
6.39869e-07
5.03954e-08
5.79426e-09
4.85617e-07
2.13296e-05
0.000201518
0.000130721
0.000139455
5.16708e-05
8.075e-06
1.07136e-06
1.84028e-07
3.64495e-08
3.99804e-07
1.59027e-05
0.000186627
0.000111832
0.000147491
7.21818e-05
1.55756e-05
2.78228e-06
3.73206e-07
1.99063e-08
2.84235e-07
1.48379e-05
0.000175396
9.2561e-05
0.00015961
9.59558e-05
2.47586e-05
5.08856e-06
1.14483e-06
2.57706e-07
2.68627e-07
1.10021e-05
0.000154283
7.26649e-05
0.000169482
0.000125232
4.28667e-05
1.11228e-05
2.57599e-06
6.07995e-07
3.0452e-07
9.9104e-06
0.000130856
0.113153
0.0146716
0.0128257
0.012823
0.0128233
0.0128232
0.0128229
0.0128256
0.0146664
0.113037
0.0392729
0.000686985
0.000242856
0.000239903
0.000239451
0.000239463
0.000239746
0.000243024
0.000687268
0.0390481
0.0165671
0.000291002
5.49149e-06
5.01792e-06
5.0178e-06
5.0363e-06
4.9949e-06
5.49373e-06
0.000288999
0.0165023
0.00831534
0.000126372
2.54386e-07
6.11137e-08
5.16658e-08
2.28198e-08
4.19518e-08
2.26758e-07
0.000124815
0.00829022
0.00478825
8.21753e-05
3.59667e-08
3.94307e-12
1.15566e-10
1.29104e-12
8.8014e-11
1.72265e-08
7.88268e-05
0.00478376
0.00306069
5.62367e-05
1.20579e-08
1.89913e-13
6.18093e-14
1e-15
9.25042e-13
4.12107e-08
5.53337e-05
0.00306531
0.0021178
6.00651e-05
1.76081e-08
4.32252e-13
2.28683e-15
5.63294e-13
1.44369e-11
6.22753e-08
5.11428e-05
0.00212454
0.00155571
6.3279e-05
2.61943e-08
1.52752e-12
1.27917e-15
8.4891e-13
2.46011e-10
1.51187e-07
4.47195e-05
0.00156326
0.00119746
7.02654e-05
2.5545e-08
4.12103e-12
1.86202e-14
4.03697e-12
3.14231e-10
1.29965e-07
5.18685e-05
0.00120523
0.000954995
4.57169e-05
3.95926e-08
8.74212e-12
1.54319e-14
5.70827e-12
1.04564e-09
2.50054e-07
6.33981e-05
0.000963799
0.000784825
6.0827e-05
4.53276e-08
9.12185e-12
5.50001e-14
1.69538e-11
7.25605e-10
1.91738e-07
5.96773e-05
0.000794791
0.000659596
5.76675e-05
6.59831e-08
3.03561e-11
4.87847e-14
3.54562e-11
9.44567e-10
2.49882e-07
3.96995e-05
0.000669812
0.000565102
5.25103e-05
9.38511e-08
5.74833e-11
1.20156e-13
4.51451e-11
1.21911e-09
2.66645e-07
4.64225e-05
0.000577298
0.000491269
4.81895e-05
1.57408e-07
1.20123e-10
4.69584e-13
9.02061e-11
1.92774e-09
4.65105e-07
4.07286e-05
0.000504384
0.000433228
5.64096e-05
3.83222e-07
9.18579e-10
1.26437e-12
9.40192e-11
3.22205e-09
7.85669e-07
4.00916e-05
0.000446404
0.000386982
6.14259e-05
6.67885e-07
1.55719e-09
2.90839e-12
1.34612e-10
4.53983e-09
1.19577e-06
3.90135e-05
0.000400839
0.000348649
6.75248e-05
1.03359e-06
6.55945e-09
1.28144e-11
1.47097e-10
5.39309e-09
1.03511e-06
4.02782e-05
0.00036356
0.000316381
7.34613e-05
1.62857e-06
1.78979e-09
8.40343e-11
1.57945e-10
6.32353e-09
1.07763e-06
4.10828e-05
0.000333966
0.000288623
7.63101e-05
2.26477e-06
6.35067e-08
4.76755e-10
1.28019e-10
6.82397e-09
1.11864e-06
4.20974e-05
0.000308174
0.000264219
8.01665e-05
3.40592e-06
8.13096e-08
1.18718e-09
2.33576e-10
6.88614e-09
1.2634e-06
4.29981e-05
0.000287867
0.000242196
8.29082e-05
4.81132e-06
1.31332e-07
3.91473e-09
3.16245e-10
7.27075e-09
1.25449e-06
4.09459e-05
0.000268298
0.000222008
8.86094e-05
7.4084e-06
3.37298e-07
5.2832e-09
1.5935e-10
7.08568e-09
1.14714e-06
3.68208e-05
0.000253438
0.000202935
9.29185e-05
9.73072e-06
5.87511e-07
3.51212e-08
8.31527e-13
6.75279e-09
9.84366e-07
3.28637e-05
0.000237039
0.000184507
9.92616e-05
1.45082e-05
1.20943e-06
6.47891e-08
6.3913e-09
6.80323e-09
8.46789e-07
2.90588e-05
0.000225858
0.000166496
0.000113691
1.94077e-05
2.12042e-06
2.26712e-07
1.13381e-08
6.29756e-09
6.9681e-07
2.50174e-05
0.000211002
0.000148588
0.000126111
2.86023e-05
3.8594e-06
3.88919e-07
5.56207e-08
1.47922e-08
5.60874e-07
2.1479e-05
0.000201461
0.000130409
0.000135796
4.77614e-05
6.93736e-06
1.088e-06
1.04194e-07
3.14035e-09
4.61679e-07
1.79714e-05
0.000187024
0.000111534
0.000144948
6.96405e-05
1.45939e-05
2.22914e-06
3.75573e-07
7.49818e-08
3.25736e-07
1.57406e-05
0.000174284
9.23111e-05
0.000157955
9.41307e-05
2.33995e-05
5.1634e-06
8.83824e-07
1.11425e-07
2.85099e-07
1.1025e-05
0.000154868
7.2502e-05
0.000168973
0.000124723
4.27239e-05
1.0415e-05
2.49644e-06
6.62133e-07
3.47927e-07
1.03391e-05
0.000129961
0.113171
0.01467
0.0128252
0.0128227
0.012823
0.0128228
0.0128227
0.0128253
0.0146648
0.113056
0.0393285
0.000687567
0.00024091
0.000240181
0.000239954
0.000238726
0.000240472
0.000243163
0.000687628
0.0391039
0.0166219
0.000290023
3.119e-06
5.03006e-06
5.02711e-06
5.2621e-06
5.05323e-06
5.57113e-06
0.000288403
0.0165568
0.00835681
0.000126708
4.55817e-08
4.36254e-08
6.63529e-08
7.44212e-08
2.30488e-08
1.62987e-07
0.000125122
0.00833165
0.00481878
7.85982e-05
2.08521e-08
1.31767e-10
3.28509e-12
5.36392e-13
2.93699e-13
2.64401e-08
7.49937e-05
0.00481462
0.00308349
5.84432e-05
9.11935e-09
1.55086e-11
1.01934e-12
1.34808e-11
7.87868e-13
3.10092e-08
5.83027e-05
0.00308824
0.00213511
6.29812e-05
1.88615e-08
4.20509e-12
1.2256e-10
1.10942e-09
2.12677e-11
5.22109e-08
5.34763e-05
0.00214195
0.00156918
5.85232e-05
6.58821e-08
6.60064e-11
4.31557e-11
9.67022e-10
3.68657e-11
1.67025e-07
5.66143e-05
0.00157693
0.00120844
7.43874e-05
7.34686e-08
3.11518e-10
1.04691e-10
1.37347e-09
5.43091e-11
1.86532e-07
5.89441e-05
0.00121578
0.000964594
7.50793e-05
7.80123e-08
1.73597e-10
3.56722e-10
2.00549e-09
8.46102e-11
2.40587e-07
6.04532e-05
0.000972722
0.000792309
5.96911e-05
1.43036e-07
2.27644e-10
3.76086e-10
5.98732e-09
1.17513e-10
3.29666e-07
6.12134e-05
0.00080126
0.00066561
5.74871e-05
3.02925e-07
1.30887e-09
1.03896e-09
9.49808e-09
2.74624e-10
3.00971e-07
4.57066e-05
0.00067637
0.000570346
5.93846e-05
4.57172e-07
3.46312e-09
1.859e-09
1.2786e-08
8.93049e-10
4.12186e-07
4.08751e-05
0.000581817
0.000495405
6.54305e-05
8.43299e-07
7.06056e-09
3.03161e-09
1.78259e-08
2.5373e-09
5.20999e-07
4.02737e-05
0.000508609
0.000437257
6.98591e-05
1.09756e-06
2.10084e-08
4.72984e-09
1.86891e-08
5.21764e-09
9.21875e-07
4.19324e-05
0.000451052
0.000390327
7.12898e-05
1.53927e-06
2.95338e-08
5.80855e-09
2.06321e-08
7.51415e-09
8.8841e-07
4.25539e-05
0.000405533
0.000351494
7.32886e-05
1.85121e-06
3.58182e-08
8.80147e-09
2.17795e-08
1.04075e-08
1.01731e-06
4.47127e-05
0.000367675
0.000318556
7.48723e-05
2.78895e-06
6.46224e-08
1.02877e-08
2.27071e-08
1.49484e-08
1.13225e-06
4.71611e-05
0.000337616
0.000290288
7.71279e-05
3.73035e-06
9.95865e-08
1.07177e-08
2.36445e-08
2.15183e-08
1.31184e-06
4.97927e-05
0.000311413
0.000265378
7.97812e-05
5.18922e-06
1.94466e-07
1.96202e-08
2.5395e-08
2.69008e-08
1.2724e-06
4.8414e-05
0.000290881
0.000243159
8.4509e-05
6.79704e-06
3.11165e-07
2.1884e-08
2.89964e-08
3.37112e-08
1.17748e-06
4.54485e-05
0.000270993
0.000222548
8.71622e-05
9.01845e-06
5.78813e-07
4.83914e-08
3.36311e-08
3.97357e-08
1.06292e-06
4.18502e-05
0.000256337
0.000203361
9.65098e-05
1.21663e-05
9.07744e-07
6.55887e-08
4.30118e-08
4.85772e-08
9.54499e-07
3.78733e-05
0.000239849
0.000184862
0.000104841
1.70758e-05
1.77823e-06
1.76629e-07
5.35474e-08
6.03792e-08
8.33381e-07
3.38586e-05
0.000229072
0.000166919
0.000120645
2.26556e-05
2.77015e-06
2.87535e-07
9.00777e-08
7.87748e-08
7.29203e-07
2.94332e-05
0.000214045
0.00014922
0.000132421
3.47425e-05
5.02004e-06
7.20412e-07
1.34839e-07
1.03114e-07
6.46575e-07
2.63093e-05
0.000205351
0.000131182
0.000139888
5.2793e-05
8.58674e-06
1.23146e-06
3.00634e-07
1.64746e-07
5.58682e-07
2.13233e-05
0.000190573
0.000113004
0.000150714
7.6039e-05
1.69084e-05
2.98457e-06
5.5014e-07
2.27248e-07
5.10615e-07
1.79319e-05
0.000177058
9.43085e-05
0.000160154
9.81937e-05
2.62732e-05
5.76916e-06
1.4126e-06
5.153e-07
5.29429e-07
1.24854e-05
0.00015747
7.65005e-05
0.000174329
0.000130046
4.51954e-05
1.19414e-05
3.12676e-06
1.01213e-06
8.35491e-07
1.09889e-05
0.000133514
0.113247
0.0146769
0.012828
0.0128254
0.0128255
0.0128256
0.0128254
0.012828
0.0146718
0.113134
0.0395036
0.000689849
0.000245106
0.000243383
0.000241958
0.000243025
0.00024354
0.000245818
0.000690117
0.0392794
0.0167683
0.000304841
5.69431e-06
5.5134e-06
5.61324e-06
5.49816e-06
5.53289e-06
6.082e-06
0.000303265
0.0167
0.00845228
0.000139057
5.40022e-07
2.7565e-07
1.76096e-07
2.5984e-07
1.99236e-07
4.35714e-07
0.000136039
0.00842554
0.00488028
8.6732e-05
3.80444e-08
1.73651e-08
1.51377e-08
1.85924e-08
1.61781e-08
2.89286e-08
8.4046e-05
0.00487677
0.00312355
6.45941e-05
7.00393e-08
8.48611e-08
3.25061e-08
3.84304e-08
5.56825e-08
5.07142e-08
5.79395e-05
0.00312906
0.00216112
6.59052e-05
1.26091e-07
9.82974e-08
1.19891e-07
2.35044e-07
2.09012e-07
2.43116e-07
6.59477e-05
0.00216893
0.00158746
6.76233e-05
1.32679e-07
1.37174e-07
8.94447e-08
1.39859e-07
3.88685e-07
3.01492e-07
4.94563e-05
0.00159561
0.00122126
6.71599e-05
3.06235e-07
3.43302e-07
1.80003e-07
2.7876e-07
4.18286e-07
5.52839e-07
5.92463e-05
0.00122792
0.00097431
6.71886e-05
3.23135e-07
3.8049e-07
1.88189e-07
3.23494e-07
5.2065e-07
5.40458e-07
5.267e-05
0.000981173
0.000800249
6.84147e-05
4.24722e-07
3.70224e-07
2.12001e-07
7.9686e-07
3.72495e-07
6.98661e-07
4.4239e-05
0.000804859
0.000672281
6.15381e-05
5.6256e-07
5.6104e-07
3.07794e-07
1.05206e-06
5.41241e-07
8.14995e-07
4.04647e-05
0.000679952
0.000575929
5.09332e-05
5.56906e-07
6.1048e-07
4.40498e-07
9.17592e-07
8.27393e-07
1.60301e-06
3.89667e-05
0.000580316
0.000500668
4.71972e-05
8.62737e-07
9.82696e-07
5.31188e-07
1.39179e-06
6.3896e-07
1.36293e-06
4.4128e-05
0.000510088
0.000441584
4.77538e-05
1.1124e-06
1.16962e-06
7.17748e-07
1.31564e-06
7.79313e-07
1.59044e-06
4.42128e-05
0.000450279
0.000393948
5.03394e-05
2.03047e-06
1.37227e-06
8.12186e-07
1.53641e-06
1.33895e-06
2.20077e-06
4.78537e-05
0.000401736
0.00035461
5.41025e-05
3.04221e-06
1.52894e-06
8.98969e-07
1.703e-06
1.5601e-06
2.95737e-06
4.92682e-05
0.000362411
0.000321339
5.79727e-05
3.86146e-06
1.68513e-06
9.86401e-07
1.89211e-06
1.78964e-06
2.9579e-06
4.67502e-05
0.00033201
0.000292752
6.36049e-05
4.78644e-06
1.99908e-06
1.14316e-06
1.97054e-06
2.10689e-06
3.18101e-06
5.01081e-05
0.000306512
0.000267517
7.12378e-05
5.87086e-06
2.22523e-06
1.2488e-06
2.00522e-06
2.31205e-06
3.25054e-06
5.0969e-05
0.000286652
0.000244979
8.08304e-05
7.92776e-06
2.78332e-06
1.49705e-06
2.09394e-06
2.51929e-06
3.21658e-06
4.83998e-05
0.000267678
0.000224194
9.011e-05
1.02269e-05
3.27485e-06
1.70813e-06
2.20257e-06
2.63521e-06
3.42812e-06
4.49776e-05
0.000253348
0.000204807
0.000102259
1.47791e-05
4.24169e-06
2.23753e-06
2.46492e-06
2.93622e-06
3.34698e-06
4.07971e-05
0.000237565
0.000185967
0.000113695
1.97425e-05
5.40411e-06
2.71227e-06
2.73533e-06
3.17249e-06
3.44545e-06
3.68474e-05
0.000226722
0.000167605
0.00013022
2.83733e-05
7.46375e-06
3.79427e-06
3.28757e-06
3.65175e-06
3.87064e-06
3.30081e-05
0.000212469
0.000148898
0.000140398
4.28761e-05
1.05035e-05
4.91458e-06
3.90741e-06
4.19231e-06
4.32402e-06
2.97485e-05
0.000203789
0.000129603
0.000150361
6.57955e-05
1.66627e-05
7.21488e-06
5.06873e-06
5.07075e-06
5.30532e-06
2.6379e-05
0.000189199
0.000109076
0.000163397
9.11329e-05
2.6567e-05
1.06332e-05
7.02752e-06
6.43656e-06
6.3183e-06
2.31615e-05
0.000179977
8.93523e-05
0.000180673
0.000126711
4.36086e-05
1.71435e-05
1.00097e-05
8.60022e-06
8.81221e-06
2.18691e-05
0.000158321
7.57958e-05
0.000203788
0.000169849
8.06754e-05
3.2653e-05
1.65651e-05
1.19123e-05
1.13095e-05
2.49608e-05
0.000145009
0.113588
0.0166896
0.0146722
0.0146653
0.0146669
0.0146669
0.0146653
0.0146722
0.0166843
0.11348
0.0397877
0.00105542
0.000690486
0.000687842
0.000687313
0.000687286
0.000687712
0.00069023
0.00105532
0.0395709
0.0169553
0.000643929
0.000303738
0.000289157
0.000290164
0.000290421
0.000289801
0.000304567
0.000649579
0.0168651
0.00855219
0.000840191
0.00013475
0.000124476
0.000125478
0.000126734
0.000126417
0.000137514
0.000834531
0.00851373
0.00492574
0.000685008
8.57623e-05
7.49533e-05
7.86945e-05
7.76981e-05
7.67098e-05
8.50716e-05
0.000687155
0.00492434
0.00314036
0.000513728
5.56956e-05
5.77402e-05
5.58705e-05
5.71234e-05
5.81893e-05
6.18238e-05
0.000488007
0.00315268
0.00215859
0.000308076
6.12284e-05
5.46729e-05
6.08409e-05
6.55626e-05
5.99964e-05
5.91544e-05
0.000338261
0.0021761
0.00157921
0.000372116
4.75566e-05
4.54031e-05
4.66446e-05
5.04308e-05
6.25402e-05
6.44884e-05
0.000259008
0.00159073
0.00120754
0.000328557
5.50386e-05
6.66072e-05
5.9044e-05
5.90784e-05
5.87517e-05
6.76303e-05
0.000172568
0.00121672
0.000957218
0.000282025