/*--------------------------------*- C++ -*----------------------------------*\
| =========                 |                                                 |
| \\      /  F ield         | OpenFOAM: The Open Source CFD Toolbox           |
|  \\    /   O peration     | Version:  4.1                                   |
|   \\  /    A nd           | Web:      www.OpenFOAM.org                      |
|    \\/     M anipulation  |                                                 |
\*---------------------------------------------------------------------------*/
FoamFile
{
    version     2.0;
    format      ascii;
    class       volScalarField;
    location    "500";
    object      nut;
}
// * * * * * * * * * * * * * * * * * * * * * * * * * * * * * * * * * * * * * //

dimensions      [0 2 -1 0 0 0 0];

internalField   nonuniform List<scalar> 
12000
(
0.00381888
0.00371783
0.00371422
0.00371285
0.00371249
0.00371245
0.00371274
0.00371419
0.0037229
0.00382489
0.00226426
0.00224264
0.00224225
0.00223719
0.00223562
0.00223563
0.00223714
0.00224108
0.00223929
0.00225796
0.00146346
0.00146326
0.00145769
0.00145178
0.00144952
0.00144955
0.0014519
0.00145786
0.00146185
0.00146185
0.00103097
0.00103545
0.00103161
0.00102728
0.00102518
0.00102524
0.00102763
0.00103275
0.00103344
0.00102935
0.000781044
0.000787433
0.000783423
0.00077993
0.000777952
0.000778127
0.000780637
0.000786158
0.000785669
0.000779209
0.000621872
0.000630548
0.00062731
0.000624092
0.000622209
0.00062221
0.000624732
0.000629642
0.000629121
0.00062125
0.000513214
0.000523332
0.000522054
0.000519288
0.000517507
0.00051759
0.000519733
0.000523753
0.000522968
0.000513837
0.000436466
0.000447596
0.000447914
0.000445559
0.000443587
0.000443828
0.000445692
0.000448927
0.000446823
0.000437631
0.000380293
0.000390968
0.000393194
0.000390852
0.000389734
0.000389861
0.000391852
0.000393508
0.000391042
0.000381688
0.000337846
0.000348428
0.000351789
0.000349821
0.000349028
0.000348633
0.000350397
0.000352101
0.000349389
0.000339489
0.000304895
0.000315144
0.000318374
0.000317043
0.000316044
0.000316336
0.00031778
0.000319025
0.000313317
0.000306551
0.000278159
0.000284518
0.000292123
0.000290963
0.000290677
0.000290177
0.000291896
0.000292491
0.000286505
0.000280511
0.000256587
0.000263289
0.000270741
0.000269766
0.000268808
0.000270203
0.000271031
0.000271606
0.000265987
0.000259549
0.000238663
0.000246637
0.000251972
0.00025185
0.000253851
0.000252275
0.000253376
0.000253703
0.0002488
0.000242263
0.00022338
0.000232203
0.00023642
0.000236255
0.000231275
0.000236661
0.000237211
0.000238321
0.00023448
0.000227817
0.000210153
0.000219695
0.000224152
0.000223741
0.000220409
0.000223646
0.000224429
0.00022598
0.000222229
0.000215591
0.000198531
0.000208731
0.000213363
0.00021307
0.000211138
0.000212744
0.000213902
0.000215234
0.000211716
0.00020522
0.000188124
0.000198911
0.000203931
0.000203685
0.000202694
0.00020376
0.000204813
0.000206146
0.000202617
0.000196307
0.000178631
0.00019021
0.000195455
0.000195458
0.000195076
0.000195821
0.00019697
0.000198337
0.000194858
0.000188762
0.000169702
0.000181999
0.000187899
0.000188151
0.000188246
0.000189027
0.000190224
0.000191625
0.000188128
0.000182213
0.000161075
0.000174445
0.000180953
0.000181591
0.000181986
0.000182824
0.000184144
0.000185759
0.000182537
0.000176825
0.000152364
0.000167043
0.000174496
0.000175646
0.00017643
0.000177587
0.000178895
0.000180613
0.000177678
0.000172089
0.000143114
0.000159358
0.000168319
0.000170114
0.000171122
0.000172458
0.000174108
0.000176238
0.000173796
0.000168536
0.000132627
0.000151279
0.000162016
0.000164903
0.000166444
0.000168307
0.000170014
0.000172301
0.000170564
0.00016538
0.000119832
0.000141688
0.000155444
0.00015963
0.00016163
0.000163764
0.000166165
0.00016918
0.00016826
0.000163637
0.000101826
0.000129815
0.000147785
0.00015432
0.000157438
0.000160157
0.000162649
0.000166146
0.000165976
0.000162011
7.53352e-05
0.000112557
0.000138233
0.000147821
0.000151806
0.00015556
0.000159196
0.000164091
0.00016501
0.000163247
6.23677e-05
9.16147e-05
0.000123319
0.000138853
0.000147501
0.000151279
0.000155356
0.000161001
0.000163903
0.00016134
7.33233e-05
8.7372e-05
0.000100575
0.00011896
0.000134438
0.000146345
0.000149949
0.000160047
0.000162874
0.000169417
9.29181e-05
0.000104938
0.000107982
0.000106877
0.000117825
0.000123344
0.000142106
0.000149455
0.000164671
0.00016696
0.00371783
2.52623e-05
1.9602e-05
1.95969e-05
1.96036e-05
1.96036e-05
1.95969e-05
1.96019e-05
2.52212e-05
0.00371278
0.00224259
1.53914e-06
2.29553e-06
2.34202e-06
2.33458e-06
2.33391e-06
2.33977e-06
2.29014e-06
1.55266e-06
0.00220447
0.00146313
1.21232e-05
1.35152e-05
1.23987e-05
1.25198e-05
1.2556e-05
1.24833e-05
1.36068e-05
1.25778e-05
0.00143975
0.00103537
0.000173293
7.49689e-06
6.22596e-06
6.42425e-06
6.42801e-06
6.46901e-06
7.72961e-06
0.000177731
0.00101906
0.000787273
0.00034362
6.20542e-06
5.4545e-06
5.3603e-06
6.12176e-06
5.36143e-06
6.82452e-06
0.000346818
0.000781871
0.000630254
0.000353073
7.92853e-06
6.45232e-06
7.33635e-06
5.95941e-06
7.65001e-06
8.25838e-06
0.00035123
0.000633186
0.000522941
0.000279176
1.37349e-05
1.40631e-05
1.4045e-05
1.80155e-05
1.39002e-05
1.76676e-05
0.000302374
0.000529637
0.000447107
0.000255685
2.71605e-05
2.51697e-05
1.91991e-05
2.02317e-05
3.40883e-05
3.40277e-05
0.000206303
0.000453542
0.000390403
0.000148047
5.64492e-05
2.01726e-05
6.01475e-05
3.80899e-05
4.85455e-05
3.17557e-05
0.000198686
0.00039603
0.000347747
0.00014943
0.00010937
7.09423e-05
0.000113227
7.63891e-05
8.09681e-05
0.000101414
0.000232673
0.000352698
0.000314349
0.000138755
3.97192e-05
5.07348e-05
4.38111e-05
8.40459e-05
0.000100395
4.50379e-05
0.000106589
0.000316033
0.000283534
7.90384e-05
4.53619e-05
3.2967e-05
4.70061e-05
0.000140957
0.000133652
3.19397e-05
0.00013335
0.000288377
0.00026212
0.000109804
3.40596e-05
1.98247e-05
4.02642e-05
0.000186615
0.000203479
2.87137e-05
0.000119023
0.000267311
0.00024527
0.000114475
5.35075e-05
3.50263e-05
5.19287e-05
5.77627e-05
5.0785e-05
3.13367e-05
0.000137874
0.000249909
0.000230609
0.000134344
4.4395e-05
2.77222e-05
3.84568e-05
5.90788e-05
3.91591e-05
2.83611e-05
0.000122618
0.000235507
0.000217785
0.000126452
6.72102e-05
3.30046e-05
5.62204e-05
3.957e-05
4.50862e-05
4.1492e-05
0.000107744
0.000223357
0.000206464
0.000123562
6.20435e-05
4.31193e-05
4.91549e-05
5.44926e-05
3.78746e-05
3.81518e-05
0.000102643
0.000212832
0.00019622
0.000120983
5.81661e-05
4.25787e-05
6.35253e-05
4.50852e-05
5.02753e-05
4.38806e-05
9.71537e-05
0.000203729
0.000187069
0.000126486
5.53504e-05
4.16779e-05
5.58026e-05
4.09725e-05
4.40533e-05
4.08033e-05
9.60411e-05
0.000195651
0.000178314
0.00012839
6.08902e-05
4.30535e-05
5.43267e-05
4.0696e-05
4.21807e-05
4.59246e-05
9.42346e-05
0.000188736
0.000170224
0.00013544
6.19018e-05
4.54294e-05
5.33279e-05
4.3063e-05
4.30814e-05
4.95507e-05
9.344e-05
0.000182337
0.000162267
0.000140001
6.7454e-05
4.91353e-05
5.47469e-05
4.59806e-05
4.49298e-05
5.11511e-05
9.33701e-05
0.000176902
0.000154146
0.000149628
7.33332e-05
5.3355e-05
5.81712e-05
5.11955e-05
4.83467e-05
5.53398e-05
8.91639e-05
0.000171871
0.000145809
0.000154901
8.69797e-05
6.06598e-05
6.08537e-05
5.47096e-05
5.22709e-05
5.85604e-05
9.07252e-05
0.000167571
0.000136641
0.000163114
0.000105706
6.76381e-05
6.65316e-05
6.07483e-05
5.75181e-05
6.32347e-05
8.39591e-05
0.000162811
0.000125865
0.000173063
0.000135088
8.59823e-05
6.97852e-05
6.54542e-05
6.2183e-05
6.64859e-05
9.19986e-05
0.000160082
0.000112558
0.000185351
0.000148363
9.76837e-05
8.28092e-05
7.54526e-05
7.17159e-05
7.41994e-05
9.20002e-05
0.000155684
9.57606e-05
0.000199362
0.000183405
0.00012455
9.46175e-05
8.42431e-05
7.90585e-05
8.00277e-05
9.45072e-05
0.000158281
8.61124e-05
0.000216788
0.000208184
0.000152799
0.000119609
0.000103528
9.40109e-05
9.4415e-05
9.74366e-05
0.000143125
8.83888e-05
0.000238889
0.000242902
0.000203447
0.00014624
0.000120581
0.000109698
0.000108568
0.000126457
0.000173009
0.00371423
1.96032e-05
1.52517e-05
1.52552e-05
1.52579e-05
1.52579e-05
1.52552e-05
1.52514e-05
1.95832e-05
0.00370192
0.00224219
2.29567e-06
8.01011e-07
7.90406e-07
7.94486e-07
7.96045e-07
7.91698e-07
7.86384e-07
2.3055e-06
0.00219832
0.00145758
1.36172e-05
9.14085e-08
6.42558e-08
6.00604e-08
5.8847e-08
7.03698e-08
8.7331e-08
1.34823e-05
0.0014349
0.00103129
7.65573e-06
2.54063e-08
6.78236e-09
5.97997e-09
5.91976e-09
1.00101e-08
5.67062e-08
7.30011e-06
0.00101484
0.000783065
6.39212e-06
4.55993e-10
3.73134e-11
5.07015e-11
3.91538e-11
2.63558e-10
5.88229e-11
6.25993e-06
0.000774917
0.000626908
8.49215e-06
4.98571e-10
1.01842e-10
1.31816e-10
9.59738e-11
1.17155e-11
1.38191e-10
6.62409e-06
0.000625535
0.000521654
1.49084e-05
2.31537e-09
2.42863e-10
1.71849e-11
3.8198e-11
1.33986e-11
2.48157e-09
1.49745e-05
0.000523676
0.00044726
1.81269e-05
7.3252e-10
1.16238e-09
5.41915e-11
2.02831e-10
6.78133e-11
7.09228e-09
1.42256e-05
0.00045047
0.00039271
6.09416e-05
2.49583e-09
3.28014e-09
2.47085e-10
9.01909e-10
2.73859e-09
1.97658e-08
3.44122e-05
0.000395519
0.000350991
0.000106219
5.88424e-09
8.11824e-09
1.1194e-09
1.33583e-09
7.6034e-10
7.46055e-08
5.39485e-05
0.000353182
0.000317691
5.08121e-05
1.00741e-07
4.39433e-08
1.04273e-09
3.22921e-09
4.18e-10
2.2015e-07
6.33132e-05
0.000319588
0.00029121
2.80394e-05
7.20049e-08
5.63047e-08
4.48319e-09
5.60095e-09
6.99657e-10
3.05045e-07
0.000133574
0.000293067
0.000269847
3.23559e-05
9.24612e-08
6.57984e-08
5.92845e-08
9.21913e-09
1.55452e-09
3.73357e-07
4.66808e-05
0.000271625
0.000250923
2.54343e-05
2.46349e-07
1.15121e-07
2.73531e-05
2.78048e-08
1.75368e-08
5.17245e-07
2.69621e-05
0.000253609
0.00023569
3.14631e-05
8.79903e-07
2.51357e-07
1.16383e-06
3.79029e-07
4.14347e-08
3.73616e-07
3.30082e-05
0.000237941
0.000222494
4.42686e-05
1.05693e-06
3.44038e-07
1.00447e-06
5.72719e-07
8.97606e-08
6.70806e-07
2.73513e-05
0.000225213
0.00021112
4.33055e-05
1.80218e-06
3.03263e-07
8.19061e-07
7.19144e-07
1.09809e-07
7.84494e-07
4.17099e-05
0.000214227
0.000201051
5.60061e-05
1.6481e-06
4.98409e-07
5.44499e-07
4.52414e-07
2.97093e-07
1.27495e-06
3.32304e-05
0.000205054
0.000192053
6.09848e-05
2.79931e-06
4.83245e-07
8.95811e-07
4.62703e-07
5.05084e-07
1.44464e-06
3.4132e-05
0.000196838
0.000183609
5.73092e-05
3.747e-06
7.12421e-07
1.08165e-06
6.47118e-07
5.97778e-07
1.10852e-06
3.56372e-05
0.000190118
0.000175642
6.91136e-05
6.09971e-06
9.87686e-07
1.25442e-06
7.88356e-07
2.8998e-06
1.85426e-06
3.5723e-05
0.00018348
0.000167914
7.52966e-05
9.25702e-06
1.65585e-06
1.93218e-06
1.16566e-06
1.32875e-06
1.75443e-06
3.60812e-05
0.000178281
0.000160286
9.1033e-05
1.40665e-05
2.84477e-06
2.8088e-06
1.66572e-06
1.33409e-06
2.47411e-06
3.39981e-05
0.000172295
0.000152533
0.000103505
2.08838e-05
4.48186e-06
3.22776e-06
2.50424e-06
1.41473e-06
2.77517e-06
3.38713e-05
0.000168314
0.000144575
0.000126166
2.96468e-05
7.41117e-06
4.70498e-06
3.41798e-06
2.44448e-06
3.56381e-06
2.84013e-05
0.00016248
0.000136097
0.000137342
4.79157e-05
1.14808e-05
6.53632e-06
4.83599e-06
3.49887e-06
4.14718e-06
2.75757e-05
0.000158354
0.000126782
0.000149594
7.52055e-05
1.96435e-05
9.59586e-06
6.39438e-06
5.16308e-06
6.06353e-06
1.89651e-05
0.000151529
0.000116117
0.000165386
0.000101185
3.16729e-05
1.47376e-05
9.31265e-06
7.38736e-06
6.82373e-06
2.39563e-05
0.000149793
0.00010488
0.000181845
0.000140325
5.09408e-05
2.07864e-05
1.35167e-05
1.05059e-05
1.04259e-05
2.04381e-05
0.000137687
9.63543e-05
0.000203494
0.000177108
9.28511e-05
3.83949e-05
1.99252e-05
1.47171e-05
1.1987e-05
2.25834e-05
0.000138183
0.00371286
1.9598e-05
1.52552e-05
1.52593e-05
1.5262e-05
1.5262e-05
1.52593e-05
1.52552e-05
1.95782e-05
0.00370015
0.00223714
2.3417e-06
7.89221e-07
7.84899e-07
7.86643e-07
7.86441e-07
7.88558e-07
7.98211e-07
2.35199e-06
0.00219359
0.00145166
1.25048e-05
6.68731e-08
4.60876e-08
4.825e-08
4.71212e-08
4.73828e-08
5.5523e-08
1.23984e-05
0.00142984
0.00102707
6.37427e-06
7.65844e-09
2.02439e-10
1.25554e-10
2.05569e-10
2.13403e-10
3.32867e-09
6.02141e-06
0.00101131
0.000779616
5.67179e-06
1.42372e-10
5.48375e-14
7.83247e-17
3.16729e-12
1.63828e-17
3.46355e-08
5.5962e-06
0.000771603
0.00062367
7.10842e-06
2.97553e-11
1.9522e-15
1.18986e-17
4.54583e-14
5.89671e-18
1.0909e-10
5.24902e-06
0.000621952
0.000518899
1.3642e-05
7.9719e-11
5.40295e-16
1.43897e-16
4.61906e-16
5.947e-16
9.10968e-09
1.1128e-05
0.000520162
0.00044479
3.02502e-05
3.59555e-10
2.13082e-15
1.92156e-16
1.35302e-15
6.94721e-16
6.96587e-09
1.47942e-05
0.000447373
0.000390551
7.15938e-05
9.99712e-10
1.08695e-14
9.14623e-16
1.2752e-14
1.50682e-12
1.02448e-07
5.46194e-05
0.000393236
0.000348801
5.62473e-05
3.24907e-09
1.16816e-13
9.5667e-16
2.63185e-14
2.88152e-14
1.98278e-07
9.71782e-05
0.000351694
0.00031635
4.39901e-05
1.47973e-08
6.76191e-13
2.51094e-16
7.42124e-15
5.33224e-15
2.04971e-07
3.95358e-05
0.000318848
0.000290288
3.27208e-05
3.70269e-08
2.31919e-12
1.01823e-15
2.8732e-14
9.97794e-14
2.18881e-07
4.09117e-05
0.000292396
0.000268396
3.26239e-05
2.28757e-07
2.10856e-11
5.49645e-14
5.66249e-14
9.80998e-13
2.77865e-07
4.04954e-05
0.000271911
0.000249738
3.82555e-05
4.06248e-07
3.61624e-10
2.7483e-13
2.13922e-13
2.47157e-11
2.17284e-07
3.04451e-05
0.00025454
0.000234785
5.22371e-05
2.87796e-06
5.40996e-09
2.58952e-10
8.91244e-13
6.87491e-11
4.95117e-07
3.15791e-05
0.000239006
0.000221537
5.57695e-05
1.25093e-06
2.20211e-09
4.20759e-10
6.30647e-13
6.9202e-11
7.64591e-07
4.16549e-05
0.00022615
0.000210114
6.03248e-05
1.77291e-06
4.97529e-08
5.98764e-09
3.04462e-12
1.0145e-10
5.36902e-07
4.42517e-05
0.000214994
0.000199995
6.20128e-05
1.99604e-06
3.41515e-08
4.93561e-09
6.79368e-11
2.27905e-10
7.4286e-07
3.57473e-05
0.000205795
0.000191011
6.64933e-05
3.06818e-06
1.07035e-07
4.14321e-09
4.58287e-10
1.53658e-09
9.53322e-07
3.62932e-05
0.000197545
0.000182646
7.09292e-05
4.36245e-06
1.52838e-07
1.11754e-08
1.55079e-09
6.49889e-09
1.0728e-06
3.72242e-05
0.000190946
0.000174935
7.88188e-05
5.89401e-06
2.138e-07
8.17038e-09
3.28308e-09
1.64846e-08
1.11583e-06
3.63652e-05
0.000184343
0.000167442
8.40466e-05
8.66953e-06
4.94054e-07
4.16572e-08
6.00349e-09
1.02282e-08
1.11458e-06
3.61393e-05
0.000179228
0.000159947
9.37905e-05
1.30035e-05
8.88515e-07
3.48588e-08
1.42233e-08
1.55531e-08
1.02774e-06
3.43875e-05
0.000173538
0.000152419
0.000105982
1.96226e-05
2.06651e-06
2.38247e-07
2.07336e-08
2.08498e-08
9.6988e-07
3.14462e-05
0.000169199
0.00014469
0.000126203
2.74515e-05
3.52082e-06
2.40287e-07
8.4474e-08
3.37296e-08
8.15794e-07
2.8272e-05
0.000163923
0.000136704
0.000135336
4.52242e-05
6.75336e-06
1.1215e-06
9.57334e-08
6.15187e-08
6.71871e-07
2.30269e-05
0.000158992
0.000128044
0.000145188
6.63875e-05
1.21649e-05
1.42194e-06
4.80591e-07
1.16898e-07
6.15125e-07
2.15172e-05
0.000153901
0.000118674
0.000157403
9.22685e-05
2.33109e-05
4.60062e-06
5.8764e-07
2.52643e-07
4.92983e-07
1.80615e-05
0.000144816
0.000108287
0.000168789
0.000116799
3.5293e-05
7.94042e-06
2.47219e-06
4.52583e-07
5.74108e-07
1.39179e-05
0.000145538
9.73081e-05
0.00018435
0.000153486
6.04737e-05
1.67662e-05
4.09491e-06
1.48883e-06
8.80253e-07
1.03523e-05
0.00010928
0.00371249
1.96047e-05
1.5258e-05
1.5262e-05
1.52647e-05
1.52647e-05
1.5262e-05
1.52577e-05
1.95848e-05
0.00369979
0.00223557
2.33365e-06
7.96204e-07
7.86052e-07
7.84405e-07
7.84668e-07
7.86251e-07
7.89228e-07
2.34667e-06
0.00219206
0.0014494
1.26416e-05
5.89688e-08
4.69576e-08
4.80472e-08
5.07601e-08
4.67787e-08
6.59887e-08
1.24933e-05
0.00142778
0.00102496
6.539e-06
5.24008e-09
2.31233e-10
1.21533e-10
4.2102e-10
2.86468e-09
3.04012e-09
6.2547e-06
0.00100956
0.000777645
5.72586e-06
1.51802e-10
2.2005e-14
5.3726e-13
2.43516e-12
3.92266e-16
3.23872e-11
5.66056e-06
0.000769909
0.000621716
7.0846e-06
1.32202e-11
8.50111e-17
9.89949e-16
2.65286e-18
1.84134e-17
6.23499e-10
6.18037e-06
0.000620159
0.000517073
1.66487e-05
2.80832e-11
6.80621e-16
2.02893e-18
1.43142e-18
3.18527e-16
7.96522e-09
1.13663e-05
0.000518253
0.000443117
2.43571e-05
2.43557e-10
3.10991e-16
7.17972e-19
3.895e-20
5.34651e-14
4.4495e-08
2.10216e-05
0.000445472
0.000388824
6.90615e-05
1.62174e-10
1.29779e-16
2.56305e-19
1.56585e-18
2.6968e-13
4.40719e-08
1.76009e-05
0.000391324
0.000347552
0.000120571
1.52081e-10
1.4508e-15
2.48043e-19
1.64462e-16
5.13755e-12
4.22677e-07
8.27103e-05
0.000350046
0.000314769
5.20309e-05
2.22454e-09
8.22833e-15
4.22056e-19
1.22872e-18
8.34565e-12
6.60427e-08
5.50765e-05
0.000317647
0.000288445
2.56231e-05
3.67239e-09
9.93677e-14
5.17055e-18
1.68796e-18
2.11802e-10
1.29578e-07
3.45868e-05
0.000291307
0.000267552
4.15814e-05
7.23413e-09
1.01195e-13
6.84384e-19
1.03099e-16
2.0767e-09
4.55675e-07
3.81393e-05
0.000271639
0.000248817
3.10021e-05
1.08521e-07
6.19716e-12
5.08746e-16
1.73021e-17
7.81646e-10
3.92463e-07
3.97965e-05
0.000252034
0.000233322
3.94874e-05
9.09767e-08
4.46774e-11
1.4978e-14
1.64386e-15
2.41701e-09
9.67641e-07
3.35947e-05
0.00023728
0.000220638
4.52937e-05
1.45983e-06
4.42178e-09
3.65279e-12
2.10159e-15
3.08788e-09
1.03745e-06
6.13284e-05
0.000224603
0.000209337
4.8083e-05
1.82539e-06
1.74752e-08
6.27072e-12
3.8897e-15
3.68302e-09
1.46344e-06
4.28842e-05
0.000213524
0.000199319
4.69479e-05
1.00848e-06
1.58831e-08
1.82007e-10
1.20721e-12
5.03801e-09
1.42077e-06
4.61009e-05
0.000204508
0.000190388
5.96652e-05
1.86548e-06
3.23694e-08
7.51169e-12
1.52634e-14
7.55899e-09
1.91569e-06
4.86247e-05
0.000196516
0.000182147
5.92393e-05
2.47171e-06
1.22063e-07
1.07386e-08
2.61131e-11
1.01507e-08
2.12874e-06
4.89136e-05
0.000190134
0.000174382
7.07523e-05
4.62508e-06
1.6858e-07
1.87225e-09
1.03964e-11
1.00296e-08
2.19957e-06
4.72784e-05
0.000183889
0.000166885
7.68339e-05
7.15935e-06
3.83215e-07
3.17123e-08
4.53667e-11
6.4088e-09
1.86645e-06
4.25505e-05
0.00017879
0.00015951
9.25255e-05
1.22263e-05
8.78413e-07
2.56163e-08
4.49415e-10
7.88715e-09
1.56021e-06
4.14712e-05
0.000173367
0.00015204
0.000102333
1.7947e-05
1.78064e-06
2.04618e-07
1.95293e-09
8.17029e-09
1.22982e-06
3.36429e-05
0.000168945
0.000144418
0.000124665
2.59617e-05
3.23167e-06
1.94668e-07
5.29692e-08
1.41968e-08
9.85007e-07
3.08066e-05
0.000163689
0.000136412
0.000132822
4.15001e-05
5.96839e-06
1.02109e-06
3.82248e-08
2.94889e-09
7.042e-07
2.32825e-05
0.000158764
0.000127737
0.000144914
6.3701e-05
1.09286e-05
1.08811e-06
3.26155e-07
2.18194e-07
5.77621e-07
1.64457e-05
0.000152254
0.00011809
0.000154277
8.71186e-05
2.07409e-05
4.21559e-06
3.69074e-07
5.44046e-09
4.49525e-07
1.66386e-05
0.000146758
0.000107322
0.000169146
0.000114212
3.34732e-05
6.38015e-06
1.90839e-06
1.15443e-06
3.29844e-07
1.34506e-05
0.000141293
9.50166e-05
0.0001794
0.000148541
5.66172e-05
1.60475e-05
3.2986e-06
6.51973e-07
3.63622e-07
9.85068e-06
0.000118116
0.00371246
1.96048e-05
1.5258e-05
1.5262e-05
1.52647e-05
1.52647e-05
1.52619e-05
1.52578e-05
1.95848e-05
0.00369981
0.00223559
2.33366e-06
7.9577e-07
7.8584e-07
7.84663e-07
7.84678e-07
7.82931e-07
7.96582e-07
2.34591e-06
0.00219212
0.00144944
1.2672e-05
5.93188e-08
4.65719e-08
4.75951e-08
4.82591e-08
4.61446e-08
5.88965e-08
1.25199e-05
0.00142791
0.00102502
6.51927e-06
5.96911e-09
2.05194e-09
2.35966e-10
1.54015e-10
2.49786e-10
4.55638e-09
6.37147e-06
0.00100983
0.000777772
6.28689e-06
2.01036e-10
1.75125e-16
1.852e-13
3.28844e-17
2.38324e-14
3.70302e-11
5.79254e-06
0.000770249
0.000621778
6.57293e-06
1.0864e-11
5.42937e-19
1.63962e-17
9.73062e-21
2.41573e-16
8.9479e-10
6.43265e-06
0.000620376
0.000516926
1.67511e-05
3.04483e-11
2.00845e-17
3.6504e-18
6.22431e-14
5.59686e-14
2.90297e-09
1.18624e-05
0.000518382
0.000443288
3.02761e-05
8.07555e-11
1.89627e-16
2.00382e-18
5.82792e-14
3.46221e-11
3.39931e-08
1.76408e-05
0.000445457
0.000389205
6.027e-05
9.90798e-11
1.81596e-15
5.15349e-16
1.61293e-12
6.60162e-11
3.79724e-08
4.11915e-05
0.000391488
0.000347353
4.00222e-05
4.91952e-10
1.60491e-15
5.15586e-17
1.40915e-12
3.90838e-10
1.31393e-07
7.35913e-05
0.000349932
0.000315136
9.62904e-05
6.29961e-10
1.79024e-15
9.12809e-16
5.18511e-12
1.33298e-10
8.1493e-08
0.000129714
0.000317882
0.000289356
0.000120888
1.72276e-09
4.40046e-14
1.04106e-17
1.66947e-11
2.08013e-10
2.07504e-07
0.000103766
0.000292262
0.00026809
0.000162098
4.32804e-09
6.74322e-14
6.30109e-17
1.79703e-11
3.36449e-10
3.86958e-07
7.18382e-05
0.000270496
0.000249318
6.53677e-05
1.59732e-08
3.02118e-13
1.1074e-15
6.92796e-11
7.30166e-10
3.13792e-07
5.43353e-05
0.000253702
0.00023337
4.6552e-05
1.10654e-07
3.48894e-11
3.70727e-15
4.3858e-11
1.62438e-09
3.83737e-07
4.63953e-05
0.000238157
0.000220623
6.38054e-05
4.12494e-07
6.33936e-11
1.24439e-14
1.05775e-10
2.68991e-09
1.55073e-06
2.45293e-05
0.000224885
0.000209265
5.74612e-05
1.37119e-06
1.44464e-09
4.44695e-13
1.24678e-10
4.72404e-09
9.26583e-07
4.18288e-05
0.000213773
0.000199341
5.96018e-05
1.48731e-06
1.11772e-10
8.66803e-12
1.19818e-10
5.67796e-09
7.88497e-07
3.31785e-05
0.000204433
0.000190371
6.23281e-05
1.39188e-06
1.9e-07
5.12205e-10
9.27262e-11
6.01167e-09
8.29008e-07
3.19084e-05
0.000196208
0.000182308
6.90702e-05
2.68523e-06
5.98529e-08
1.28445e-09
2.94826e-10
6.5662e-09
1.18662e-06
3.55167e-05
0.000189784
0.000174481
7.36552e-05
3.87233e-06
9.90357e-08
5.73615e-09
2.65203e-10
8.5205e-09
1.38335e-06
3.63583e-05
0.000183519
0.00016724
8.28715e-05
6.38943e-06
2.79391e-07
1.87081e-09
5.61598e-12
8.88756e-09
1.41167e-06
3.44402e-05
0.000178629
0.000159856
8.63805e-05
8.73043e-06
4.53112e-07
5.37246e-08
3.38748e-16
9.64716e-09
1.32624e-06
3.264e-05
0.000172865
0.000152379
9.57136e-05
1.49745e-05
1.23404e-06
3.88351e-08
3.42536e-08
9.64795e-09
1.20469e-06
3.00715e-05
0.000168703
0.000144577
0.000116386
2.13491e-05
2.2448e-06
3.24245e-07
6.13034e-09
7.05426e-09
1.02855e-06
2.72741e-05
0.000163075
0.00013645
0.000127467
3.29078e-05
4.72794e-06
3.05431e-07
9.48718e-08
1.975e-08
8.22258e-07
2.35797e-05
0.000158502
0.000127649
0.000140366
5.86161e-05
8.59332e-06
1.67188e-06
7.52931e-08
1.38147e-09
6.84713e-07
2.10488e-05
0.000153518
0.000117916
0.000151343
8.38759e-05
1.97285e-05
2.49e-06
5.7406e-07
9.22897e-08
4.89429e-07
1.86447e-05
0.000144098
0.000107093
0.000167364
0.000112083
3.07072e-05
7.7576e-06
9.39807e-07
1.36111e-07
3.92006e-07
1.34172e-05
0.000142844
9.47691e-05
0.000178996
0.000148313
5.71168e-05
1.36479e-05
3.37868e-06
8.60592e-07
4.14567e-07
1.06393e-05
0.000115438
0.00371275
1.95981e-05
1.52548e-05
1.52593e-05
1.5262e-05
1.52616e-05
1.52592e-05
1.52552e-05
1.95783e-05
0.00370019
0.0022371
2.34079e-06
7.59415e-07
7.8402e-07
7.86343e-07
7.67197e-07
7.8811e-07
7.93433e-07
2.34968e-06
0.0021937
0.0014518
1.25733e-05
2.5922e-08
4.71615e-08
4.69498e-08
7.85023e-08
4.69444e-08
6.41187e-08
1.24574e-05
0.00143027
0.0010274
6.56008e-06
4.05314e-10
3.00756e-10
2.49392e-09
3.185e-09
1.54959e-10
3.72005e-09
6.3975e-06
0.00101221
0.000780293
5.76926e-06
6.23215e-11
7.91436e-14
8.60564e-17
1.27475e-17
1.40136e-19
2.99135e-10
5.26134e-06
0.000772973
0.000624161
7.1485e-06
6.77188e-12
1.12368e-13
1.33177e-16
4.42883e-13
1.53488e-18
3.46013e-10
7.09659e-06
0.000622987
0.000519222
1.74785e-05
4.68941e-11
1.55358e-15
9.9366e-12
4.78753e-10
1.93781e-15
1.7284e-09
1.29011e-05
0.000520602
0.000445121
2.89735e-05
1.273e-09
1.79852e-13
1.24175e-12
1.54015e-10
6.68395e-15
3.66022e-08
2.79541e-05
0.000447488
0.000390545
7.2773e-05
1.96549e-09
6.20828e-12
6.11362e-12
3.48836e-10
4.26182e-14
7.33499e-08
5.34611e-05
0.000393167
0.000349175
0.000123641
3.00872e-09
1.05246e-12
1.7103e-10
6.60979e-10
1.52494e-13
1.38732e-07
6.22917e-05
0.00035143
0.000316253
5.06636e-05
1.75304e-08
2.79993e-12
1.53657e-10
2.36242e-09
4.53147e-13
2.93248e-07
0.000136827
0.000319138
0.000289764
3.69007e-05
1.39439e-07
2.03143e-10
4.79933e-10
4.47701e-09
3.14525e-12
1.2421e-07
5.73259e-05
0.000293156
0.000268355
4.64175e-05
2.42648e-07
8.95312e-10
8.39904e-10
7.73781e-09
4.94673e-11
2.07238e-07
4.01715e-05
0.000272337
0.000249123
3.99372e-05
6.90466e-07
4.23936e-09
2.10183e-09
1.16846e-08
6.83686e-10
2.4004e-07
2.77689e-05
0.000253452
0.000234064
5.1279e-05
6.77156e-07
2.2973e-08
3.44674e-09
1.22359e-08
3.87239e-09
4.65771e-07
3.09202e-05
0.000238184
0.000221368
4.94613e-05
1.38163e-06
5.00639e-08
4.27359e-09
1.46368e-08
7.61894e-09
6.93285e-07
2.46087e-05
0.00022612
0.000210244
6.18332e-05
9.99332e-07
2.05888e-08
8.13038e-09
1.60791e-08
6.80918e-09
9.00378e-07
3.98888e-05
0.000214992
0.000200212
6.08743e-05
2.39907e-06
4.80224e-08
1.00281e-08
1.76597e-08
9.82557e-09
1.06854e-06
3.69812e-05
0.000205646
0.000191147
6.361e-05
3.63253e-06
8.49432e-08
7.7754e-09
2.06836e-08
1.61955e-08
1.1603e-06
4.16439e-05
0.000197402
0.000182692
6.72646e-05
5.10255e-06
1.84634e-07
2.60641e-08
2.31751e-08
2.17428e-08
1.14321e-06
4.34923e-05
0.000190905
0.000174993
7.60562e-05
6.31379e-06
2.66978e-07
1.6699e-08
3.16114e-08
3.05188e-08
1.16174e-06
4.38599e-05
0.000184414
0.000167375
7.92284e-05
8.69339e-06
5.52099e-07
6.19762e-08
3.72373e-08
4.12312e-08
1.14147e-06
4.26481e-05
0.000179527
0.000159907
9.29951e-05
1.27976e-05
9.18933e-07
4.49637e-08
5.71247e-08
5.22929e-08
1.12664e-06
4.09115e-05
0.000173766
0.000152348
0.000103202
1.8759e-05
2.10697e-06
2.43071e-07
5.81039e-08
7.75614e-08
1.02913e-06
3.77392e-05
0.000169822
0.000144587
0.000124169
2.61979e-05
3.24565e-06
2.49675e-07
1.37947e-07
1.01812e-07
9.68693e-07
3.416e-05
0.000164076
0.000136585
0.000134315
4.43296e-05
6.56448e-06
1.09117e-06
1.39135e-07
1.53396e-07
8.75328e-07
3.15536e-05
0.000160113
0.000127886
0.000144549
6.50821e-05
1.16674e-05
1.32407e-06
5.09762e-07
2.23869e-07
8.25805e-07
2.64902e-05
0.000156032
0.000118572
0.000158117
9.24001e-05
2.28055e-05
4.35427e-06
5.88289e-07
3.24985e-07
7.47156e-07
2.22005e-05
0.000144672
0.000108187
0.000169113
0.000117276
3.54603e-05
7.61717e-06
2.32293e-06
7.26361e-07
7.71308e-07
1.53728e-05
0.000144639
9.73549e-05
0.000186216
0.000155037
5.96999e-05
1.66631e-05
4.03175e-06
1.45241e-06
1.11895e-06
1.12795e-05
0.000119397
0.0037142
1.96032e-05
1.52515e-05
1.52552e-05
1.52576e-05
1.52579e-05
1.52553e-05
1.52514e-05
1.95834e-05
0.00370186
0.00224103
2.28738e-06
7.89672e-07
7.96739e-07
7.80563e-07
7.96577e-07
7.98783e-07
7.98871e-07
2.29932e-06
0.00219783
0.00145774
1.37224e-05
9.37752e-08
5.94716e-08
8.58801e-08
5.90729e-08
5.96769e-08
9.38427e-08
1.36084e-05
0.00143545
0.00103247
7.9478e-06
4.50806e-08
6.82988e-09
9.90549e-09
6.44809e-09
3.20705e-09
2.22137e-08
7.60296e-06
0.00101656
0.000785745
7.13694e-06
7.93615e-11
3.21674e-11
2.03371e-11
4.16524e-11
3.54462e-11
5.75515e-11
6.7105e-06
0.000778506
0.000629179
8.88807e-06
7.10827e-10
4.909e-09
3.66671e-10
6.3798e-10
1.87287e-09
3.51106e-10
7.1333e-06
0.000628319
0.00052307
1.95429e-05
3.74663e-09
1.0282e-08
1.32671e-08
6.90423e-08
5.46867e-08
2.33444e-08
2.02071e-05
0.000525286
0.000448173
3.8636e-05
4.86535e-09
3.01e-08
9.84691e-09
1.88546e-08
6.25983e-08
5.91953e-08
2.01252e-05
0.000451157
0.000392937
6.88314e-05
4.94292e-08
1.54308e-07
8.2883e-08
1.07339e-07
8.29454e-08
3.10324e-07
5.03711e-05
0.000395545
0.000350665
7.46038e-05
8.11292e-08
2.83762e-07
1.24494e-07
1.36686e-07
3.27056e-07
2.94084e-07
6.30402e-05
0.000353176
0.000318232
0.000168499
2.33985e-07
2.53645e-07
2.03445e-07
5.05856e-07
2.38729e-07
3.8911e-07
7.60691e-05
0.000319589
0.000291698
8.34897e-05
6.50318e-07
3.19916e-07
2.09407e-07
1.02835e-06
3.66951e-07
4.73682e-07
3.41746e-05
0.000292854
0.000269893
5.34194e-05
5.89824e-07
6.53469e-07
4.38509e-07
3.47302e-07
7.10878e-07
1.78673e-06
2.64918e-05
0.000271348
0.000250931
2.89169e-05
7.07998e-07
9.94931e-07
4.41559e-07
7.09189e-07
1.83605e-07
1.11481e-06
3.47031e-05
0.000251709
0.000235579
3.51681e-05
9.28402e-07
7.71929e-07
6.77428e-07
6.25506e-07
5.07175e-07
1.11917e-06
2.59692e-05
0.000240436
0.00022254
3.82284e-05
1.4966e-06
1.49306e-06
8.00481e-07
9.22411e-07
1.82613e-06
1.45448e-06
5.37439e-05
0.000228074
0.000211227
4.12436e-05
3.27706e-06
1.22136e-06
9.55159e-07
1.15614e-06
1.22395e-06
3.49538e-06
5.00569e-05
0.000215471
0.000201092
4.40692e-05
3.57529e-06
1.25129e-06
8.03812e-07
1.48381e-06
1.27752e-06
3.35605e-06
3.46216e-05
0.000204611
0.000191974
5.55003e-05
4.42987e-06
1.63439e-06
1.10534e-06
1.71505e-06
1.67614e-06
3.20902e-06
3.87081e-05
0.000195625
0.000183456
6.5944e-05
5.49671e-06
2.06799e-06
1.20866e-06
1.96168e-06
2.01223e-06
3.19102e-06
4.39656e-05
0.000189034
0.000175492
7.75736e-05
8.2592e-06
2.99211e-06
1.59873e-06
2.25241e-06
2.48627e-06
3.38303e-06
4.53326e-05
0.000182832
0.000167802
8.77318e-05
1.06372e-05
3.73673e-06
1.88715e-06
2.5396e-06
2.77096e-06
4.04855e-06
4.5267e-05
0.000178148
0.000160272
0.000102188
1.73335e-05
5.34625e-06
2.80254e-06
3.13e-06
3.44336e-06
4.02864e-06
4.32525e-05
0.000172763
0.000152604
0.000117058
2.24024e-05
6.97379e-06
3.51872e-06
3.62075e-06
3.96005e-06
4.10719e-06
4.111e-05
0.000168859
0.00014477
0.000135805
3.58281e-05
1.00788e-05
5.40397e-06
4.68713e-06
4.94415e-06
5.06911e-06
3.79754e-05
0.000163387
0.000136356
0.000143592
5.64036e-05
1.4522e-05
7.01508e-06
5.56865e-06
5.88309e-06
5.86554e-06
3.63676e-05
0.000159956
0.000127112
0.000155427
8.5621e-05
2.3525e-05
1.08758e-05
7.52713e-06
7.18009e-06
7.54976e-06
3.2303e-05
0.000153551
0.000116459
0.000170177
0.000110296
3.731e-05
1.5586e-05
1.06319e-05
9.33986e-06
8.87445e-06
3.04646e-05
0.000151688
0.000105184
0.000186398
0.00015244
5.82671e-05
2.39607e-05
1.41528e-05
1.21853e-05
1.23133e-05
2.60667e-05
0.000138877
9.676e-05
0.000208726
0.00018706
0.000105218
4.49651e-05
2.3658e-05
1.59418e-05
1.44708e-05
2.64565e-05
0.000139999
0.0037229
2.52244e-05
1.95843e-05
1.95794e-05
1.95861e-05
1.9586e-05
1.95793e-05
1.95845e-05
2.52001e-05
0.00371113
0.00223919
1.54849e-06
2.30258e-06
2.34891e-06
2.34246e-06
2.34195e-06
2.34659e-06
2.29686e-06
1.55901e-06
0.00219787
0.00146165
1.24478e-05
1.3611e-05
1.24971e-05
1.26098e-05
1.26377e-05
1.25723e-05
1.3717e-05
1.28957e-05
0.0014335
0.00103324
0.000178472
7.37535e-06
6.27684e-06
6.40936e-06
6.56879e-06
6.52894e-06
7.76888e-06
0.00018072
0.0010118
0.000785042
0.000339567
6.84379e-06
5.19655e-06
5.75081e-06
5.65851e-06
5.51539e-06
6.87239e-06
0.000349284
0.000775645
0.000629096
0.00038395
6.40486e-06
6.86794e-06
6.43835e-06
6.75208e-06
6.99155e-06
8.11212e-06
0.000358826
0.000629566