/*--------------------------------*- C++ -*----------------------------------*\
| =========                 |                                                 |
| \\      /  F ield         | OpenFOAM: The Open Source CFD Toolbox           |
|  \\    /   O peration     | Version:  4.1                                   |
|   \\  /    A nd           | Web:      www.OpenFOAM.org                      |
|    \\/     M anipulation  |                                                 |
\*---------------------------------------------------------------------------*/
FoamFile
{
    version     2.0;
    format      ascii;
    class       volScalarField;
    location    "500";
    object      p;
}
// * * * * * * * * * * * * * * * * * * * * * * * * * * * * * * * * * * * * * //

dimensions      [0 2 -2 0 0 0 0];

internalField   nonuniform List<scalar> 
12000
(
0.0762997
0.0765788
0.0762427
0.0761221
0.0760844
0.0760828
0.0761176
0.0762356
0.0765693
0.0762868
0.0757337
0.075718
0.0756555
0.0756581
0.0756446
0.075643
0.0756533
0.0756479
0.0757078
0.0757207
0.0756147
0.0753778
0.0754401
0.0754886
0.0754906
0.0754887
0.0754831
0.0754314
0.0753662
0.0756001
0.0755858
0.0753217
0.0754062
0.0754343
0.0754343
0.0754319
0.0754275
0.0753956
0.0753077
0.0755685
0.0754895
0.0752697
0.0753554
0.0753585
0.0753557
0.0753529
0.0753499
0.0753422
0.0752525
0.0754684
0.0753673
0.0751924
0.0752743
0.0752642
0.0752634
0.0752599
0.0752532
0.0752575
0.0751708
0.0753408
0.0752663
0.075125
0.0751988
0.0751811
0.0751829
0.0751784
0.075167
0.0751775
0.0750974
0.0752324
0.0751916
0.0750761
0.0751404
0.0751167
0.0751193
0.0751137
0.0750987
0.0751134
0.0750408
0.0751479
0.0751326
0.0750373
0.0750925
0.0750641
0.0750664
0.0750595
0.0750416
0.0750577
0.0749916
0.0750762
0.0750833
0.0750029
0.0750494
0.0750178
0.0750189
0.0750098
0.0749889
0.075004
0.0749433
0.0750102
0.0750427
0.0749729
0.0750108
0.0749766
0.0749748
0.0749627
0.0749384
0.0749515
0.0748955
0.0749485
0.0750115
0.0749492
0.0749782
0.0749408
0.0749346
0.0749187
0.0748907
0.0749003
0.074848
0.07489
0.0749897
0.074932
0.0749526
0.0749114
0.0749
0.0748791
0.0748463
0.0748501
0.0747992
0.0748324
0.0749769
0.0749209
0.0749328
0.0748869
0.0748689
0.0748421
0.074803
0.0747992
0.0747474
0.0747731
0.0749742
0.0749171
0.0749187
0.0748661
0.0748395
0.0748041
0.0747573
0.0747451
0.0746911
0.0747098
0.0749831
0.0749224
0.0749115
0.0748497
0.0748117
0.074765
0.0747083
0.0746858
0.0746277
0.0746398
0.0750054
0.074939
0.0749128
0.0748383
0.0747852
0.0747242
0.0746546
0.0746192
0.0745547
0.0745597
0.0750433
0.0749691
0.0749239
0.0748328
0.0747603
0.0746809
0.0745945
0.0745427
0.0744685
0.0744655
0.0750991
0.0750154
0.0749463
0.0748336
0.0747366
0.0746337
0.0745253
0.0744526
0.0743646
0.074352
0.0751749
0.0750812
0.0749819
0.0748416
0.0747139
0.0745811
0.0744438
0.0743442
0.0742367
0.0742122
0.0752719
0.0751693
0.0750328
0.0748577
0.0746921
0.0745212
0.0743461
0.074211
0.0740762
0.0740364
0.0753883
0.0752809
0.075101
0.0748834
0.0746711
0.0744519
0.0742271
0.0740441
0.0738711
0.0738103
0.0755179
0.0754134
0.0751879
0.0749201
0.0746515
0.0743712
0.0740806
0.073832
0.073604
0.0735131
0.0756476
0.075557
0.0752939
0.0749712
0.0746353
0.0742775
0.073899
0.0735582
0.0732484
0.0731115
0.0757583
0.0756923
0.0754169
0.0750417
0.0746266
0.0741701
0.0736733
0.0731995
0.0727625
0.0725493
0.075832
0.0757969
0.0755541
0.0751411
0.0746332
0.0740501
0.0733917
0.0727217
0.0720766
0.0717258
0.0758677
0.0758619
0.0757006
0.0752761
0.0746645
0.073921
0.0730418
0.0720768
0.0710723
0.0704271
0.075895
0.0759324
0.0758582
0.0754377
0.07472
0.0737808
0.0725991
0.0711809
0.0695431
0.0681848
0.0759046
0.0759735
0.0759347
0.0755396
0.0747572
0.0736201
0.0720577
0.0699374
0.0671942
0.0635633
0.0758653
0.0759103
0.0758098
0.0754021
0.0746113
0.073299
0.0712782
0.0679977
0.0636267
0.0528417
0.0765801
0.0766136
0.0762843
0.0761663
0.0761263
0.0761248
0.0761619
0.0762773
0.0766046
0.0765664
0.0757193
0.0756696
0.0756351
0.0756421
0.075627
0.0756254
0.0756374
0.0756278
0.0756597
0.075706
0.0753794
0.0751619
0.0752471
0.0753023
0.0753033
0.0753015
0.0752969
0.0752387
0.0751505
0.0753645
0.0753237
0.0750664
0.0751671
0.0751948
0.0751931
0.0751909
0.0751883
0.0751569
0.0750525
0.075306
0.0752723
0.0750505
0.0751535
0.0751495
0.0751455
0.0751427
0.0751413
0.0751407
0.0750331
0.0752507
0.0751958
0.0750124
0.0751137
0.0750942
0.0750949
0.0750914
0.0750838
0.0750975
0.0749904
0.0751686
0.0751294
0.0749745
0.0750669
0.0750388
0.0750449
0.0750405
0.0750255
0.0750461
0.0749464
0.0750944
0.0750818
0.0749509
0.075031
0.0749961
0.0750045
0.0749989
0.074979
0.075004
0.0749147
0.0750366
0.0750446
0.074935
0.0750031
0.0749635
0.0749716
0.0749643
0.074941
0.074968
0.0748882
0.0749861
0.0750122
0.0749201
0.0749775
0.0749349
0.0749413
0.0749319
0.0749054
0.0749315
0.0748595
0.0749365
0.0749847
0.0749058
0.0749531
0.0749084
0.0749121
0.0748999
0.07487
0.0748928
0.0748269
0.0748873
0.0749641
0.0748936
0.074931
0.0748845
0.0748839
0.0748681
0.0748345
0.0748523
0.074791
0.0748383
0.0749508
0.0748853
0.0749122
0.0748634
0.0748568
0.0748362
0.0747983
0.0748103
0.0747518
0.0747879
0.0749445
0.0748821
0.0748979
0.0748452
0.0748309
0.0748039
0.0747607
0.0747654
0.074708
0.0747342
0.0749465
0.0748847
0.0748889
0.0748302
0.0748058
0.0747707
0.0747204
0.0747159
0.0746575
0.0746756
0.0749589
0.0748949
0.0748856
0.0748185
0.0747814
0.0747358
0.0746761
0.0746604
0.0745985
0.0746093
0.0749837
0.0749144
0.0748891
0.0748105
0.0747577
0.0746984
0.0746264
0.0745969
0.0745283
0.0745311
0.0750226
0.0749457
0.074901
0.0748068
0.0747344
0.0746571
0.0745688
0.0745221
0.0744434
0.0744374
0.0750776
0.0749913
0.0749226
0.0748079
0.0747108
0.0746105
0.0745006
0.0744321
0.0743393
0.0743236
0.0751508
0.0750539
0.0749556
0.0748143
0.0746865
0.0745565
0.0744183
0.0743216
0.0742094
0.074182
0.0752429
0.0751359
0.0750017
0.0748267
0.0746608
0.074493
0.0743175
0.074184
0.0740446
0.0740019
0.0753531
0.0752386
0.0750622
0.0748457
0.0746331
0.0744172
0.0741925
0.07401
0.0738319
0.0737682
0.0754769
0.0753607
0.0751383
0.0748725
0.0746034
0.074326
0.074036
0.0737866
0.0735523
0.0734582
0.0756048
0.0754965
0.0752307
0.074909
0.0745722
0.0742165
0.0738387
0.0734952
0.0731768
0.073036
0.0757214
0.075634
0.0753392
0.0749591
0.0745425
0.074087
0.0735896
0.07311
0.0726593
0.0724403
0.0758097
0.0757553
0.0754628
0.0750295
0.0745195
0.0739369
0.0732752
0.072593
0.0719231
0.0715612
0.0758608
0.0758423
0.0755956
0.0751259
0.0745114
0.0737695
0.0728815
0.0718921
0.0708373
0.0701643
0.0758828
0.0758995
0.0757247
0.0752397
0.0745184
0.0735837
0.0723856
0.0709231
0.0691795
0.0677426
0.0758685
0.0759032
0.075778
0.0753084
0.0745156
0.0733778
0.0717828
0.0695827
0.0666296
0.0627503
0.0758346
0.075806
0.0756093
0.0751513
0.0743546
0.0730485
0.0710028
0.0675764
0.0629201
0.051349
0.0762453
0.0762855
0.0759788
0.0758561
0.0758146
0.0758131
0.0758517
0.0759719
0.0762766
0.0762308
0.075658
0.0756364
0.0756077
0.0756096
0.0755945
0.0755928
0.0756049
0.0756004
0.0756265
0.0756446
0.0754431
0.0752486
0.075334
0.0753877
0.0753892
0.0753874
0.0753824
0.0753256
0.0752372
0.0754283
0.07541
0.075169
0.0752681
0.0752946
0.0752925
0.0752903
0.075288
0.0752579
0.0751551
0.0753924
0.0753601
0.0751558
0.0752598
0.0752536
0.0752489
0.0752461
0.0752453
0.075247
0.0751385
0.0753387
0.0752803
0.0751166
0.0752227
0.0752012
0.0752024
0.0751989
0.0751908
0.0752065
0.0750946
0.0752534
0.0752065
0.0750706
0.0751693
0.0751396
0.0751477
0.0751433
0.0751263
0.0751485
0.0750424
0.0751719
0.0751503
0.0750357
0.0751221
0.0750856
0.0750967
0.0750911
0.0750683
0.0750951
0.0749994
0.0751057
0.0751054
0.0750091
0.0750834
0.075042
0.0750529
0.0750456
0.0750191
0.0750482
0.0749623
0.0750479
0.075066
0.0749851
0.0750484
0.0750042
0.0750133
0.075004
0.0749742
0.0750024
0.0749243
0.0749922
0.075032
0.0749628
0.0750155
0.0749694
0.0749758
0.0749639
0.0749307
0.0749556
0.0748838
0.0749366
0.0750052
0.0749434
0.0749854
0.0749376
0.0749399
0.0749244
0.0748876
0.0749078
0.0748411
0.0748815
0.0749869
0.0749282
0.0749588
0.0749088
0.0749049
0.0748848
0.0748441
0.0748583
0.0747957
0.0748267
0.0749763
0.0749188
0.0749376
0.0748839
0.0748719
0.0748453
0.0747998
0.0748066
0.0747465
0.074769
0.0749741
0.0749161
0.0749225
0.0748632
0.0748408
0.0748062
0.0747539
0.0747509
0.0746912
0.0747068
0.0749823
0.0749211
0.0749137
0.0748462
0.074811
0.0747661
0.0747047
0.0746897
0.0746276
0.0746371
0.0750027
0.0749353
0.0749118
0.074833
0.0747822
0.0747236
0.0746505
0.0746217
0.0745536
0.0745545
0.0750369
0.074961
0.0749181
0.0748238
0.0747537
0.0746775
0.0745886
0.074543
0.0744652
0.0744566
0.0750866
0.0750002
0.0749337
0.0748192
0.0747249
0.0746258
0.0745158
0.0744487
0.0743574
0.0743386
0.0751532
0.0750552
0.07496
0.0748193
0.0746949
0.0745665
0.0744286
0.0743336
0.0742232
0.0741928
0.0752373
0.0751279
0.074998
0.0748243
0.0746625
0.0744968
0.0743221
0.0741907
0.0740531
0.0740075
0.0753375
0.0752191
0.0750486
0.0748342
0.0746266
0.0744134
0.07419
0.0740102
0.0738336
0.073767
0.0754495
0.0753274
0.075112
0.0748492
0.0745861
0.0743124
0.0740241
0.0737781
0.0735448
0.0734474
0.0755655
0.0754481
0.0751881
0.0748699
0.0745403
0.0741898
0.0738143
0.0734748
0.073156
0.0730111
0.0756748
0.0755721
0.0752756
0.0748983
0.0744906
0.0740425
0.0735483
0.0730728
0.0726192
0.0723938
0.0757655
0.075687
0.0753729
0.0749382
0.0744408
0.0738698
0.0732124
0.0725332
0.0718544
0.0714809
0.075829
0.0757806
0.0754771
0.0749957
0.0744005
0.0736777
0.0727964
0.0718063
0.0707283
0.0700308
0.0758651
0.0758453
0.0755802
0.0750747
0.0743847
0.0734825
0.0722953
0.0708245
0.0690222
0.0675276
0.0758799
0.0758767
0.0756621
0.0751801
0.074435
0.0733472
0.0717704
0.0695529
0.0664708
0.0624309
0.075888
0.0758663
0.0756889
0.0753058
0.0746009
0.0733582
0.071333
0.0678765
0.063001
0.0509831
0.0761261
0.076169
0.0758575
0.0757339
0.0756921
0.0756906
0.0757295
0.0758506
0.07616
0.0761113
0.075662
0.0756448
0.075611
0.0756132
0.0755981
0.0755964
0.0756085
0.0756036
0.0756349
0.0756485
0.0754932
0.0753053
0.0753893
0.0754453
0.0754469
0.075445
0.07544
0.0753809
0.0752939
0.0754784
0.07544
0.0751985
0.0752964
0.075325
0.0753226
0.0753204
0.0753185
0.0752863
0.0751847
0.0754224
0.0753656
0.0751541
0.0752558
0.0752499
0.0752445
0.0752417
0.0752418
0.0752431
0.0751369
0.0753441
0.0752734
0.0751
0.075204
0.0751817
0.0751822
0.0751788
0.0751713
0.075188
0.0750783
0.0752459
0.075193
0.0750463
0.0751434
0.0751123
0.0751201
0.0751158
0.075099
0.0751229
0.0750185
0.0751572
0.0751319
0.075006
0.0750905
0.0750519
0.0750629
0.0750574
0.0750346
0.0750637
0.07497
0.0750861
0.0750837
0.0749762
0.0750484
0.0750042
0.0750153
0.0750082
0.0749816
0.0750133
0.0749296
0.0750253
0.0750427
0.0749514
0.0750127
0.0749654
0.0749749
0.0749657
0.074936
0.0749668
0.074891
0.0749679
0.0750086
0.0749299
0.0749806
0.0749316
0.0749383
0.0749264
0.0748934
0.074921
0.0748516
0.074912
0.0749828
0.0749122
0.0749521
0.0749017
0.074904
0.0748886
0.0748521
0.074875
0.0748107
0.074857
0.0749659
0.0748994
0.0749279
0.0748757
0.0748718
0.0748517
0.0748113
0.0748277
0.0747672
0.0748033
0.074957
0.0748922
0.0749091
0.0748537
0.0748417
0.0748154
0.0747698
0.0747779
0.0747196
0.0747482
0.0749563
0.0748915
0.0748961
0.0748356
0.0748134
0.0747789
0.0747266
0.0747247
0.0746662
0.0746875
0.0749654
0.0748983
0.074889
0.0748209
0.0747861
0.0747411
0.07468
0.0746663
0.0746047
0.0746179
0.0749862
0.074914
0.0748884
0.0748095
0.0747591
0.0747006
0.0746278
0.0746002
0.0745322
0.0745362
0.0750203
0.0749404
0.0748954
0.0748017
0.074732
0.074656
0.0745675
0.0745226
0.074445
0.0744391
0.0750692
0.0749794
0.0749109
0.0747976
0.0747039
0.0746053
0.0744958
0.0744292
0.0743378
0.0743212
0.0751338
0.0750332
0.0749359
0.0747972
0.0746736
0.074546
0.0744089
0.0743144
0.0742035
0.0741744
0.0752147
0.0751031
0.0749713
0.0748002
0.0746398
0.0744753
0.0743015
0.0741708
0.0740324
0.0739871
0.0753103
0.0751898
0.0750176
0.0748065
0.0746009
0.0743892
0.0741672
0.0739881
0.0738103
0.0737432
0.0754171
0.0752924
0.075075
0.0748157
0.0745555
0.0742838
0.0739973
0.0737521
0.0735169
0.0734181
0.0755288
0.0754071
0.0751436
0.0748284
0.0745027
0.0741549
0.0737815
0.0734428
0.0731214
0.0729737
0.0756371
0.0755271
0.075223
0.074847
0.0744443
0.0740002
0.0735085
0.0730335
0.0725754
0.0723453
0.0757334
0.0756432
0.0753136
0.074877
0.0743864
0.0738216
0.0731674
0.0724877
0.0718007
0.0714188
0.0758107
0.0757467
0.0754166
0.0749307
0.0743464
0.0736338
0.0727568
0.0717642
0.0706709
0.0699575
0.0758688
0.0758315
0.075533
0.0750271
0.0743567
0.0734711
0.0722902
0.0708142
0.0689847
0.0674593
0.075913
0.0758964
0.0756665
0.0752061
0.0744949
0.0734309
0.0718634
0.0696415
0.0665233
0.0624418
0.0759464
0.0759352
0.0758162
0.0755076
0.0748514
0.0736295
0.0716119
0.068158
0.0632582
0.0512605
0.0760899
0.0761305
0.0758175
0.0756936
0.0756516
0.0756501
0.0756892
0.0758106
0.0761215
0.0760751
0.0756502
0.0756313
0.0755974
0.0755997
0.0755844
0.0755828
0.075595
0.0755901
0.0756214
0.0756366
0.075497
0.0753081
0.0753925
0.0754487
0.0754502
0.0754483
0.0754433
0.0753842
0.0752968
0.0754822
0.0754422
0.0751991
0.0752966
0.0753248
0.0753222
0.07532
0.0753183
0.0752864
0.0751852
0.0754246
0.0753658
0.0751529
0.0752539
0.0752472
0.0752413
0.0752385
0.0752391
0.0752412
0.0751357
0.0753441
0.0752761
0.0751044
0.0752089
0.0751858
0.0751859
0.0751824
0.0751753
0.0751927
0.0750825
0.0752489
0.0751996
0.0750571
0.075156
0.0751247
0.0751325
0.0751281
0.0751113
0.0751354
0.0750291
0.0751641
0.0751414
0.0750202
0.0751073
0.0750689
0.0750804
0.0750749
0.0750516
0.0750807
0.0749843
0.0750953
0.0750946
0.0749919
0.0750669
0.0750232
0.0750349
0.0750279
0.0750006
0.0750322
0.0749456
0.0750356
0.0750546
0.0749678
0.075032
0.0749852
0.0749956
0.0749865
0.0749558
0.0749866
0.0749079
0.0749791
0.075021
0.0749464
0.0750002
0.0749517
0.0749593
0.0749475
0.0749135
0.0749411
0.0748687
0.0749238
0.0749951
0.0749286
0.0749714
0.0749213
0.0749245
0.0749092
0.0748717
0.0748948
0.0748273
0.0748693
0.0749775
0.0749151
0.0749465
0.0748943
0.0748914
0.0748714
0.0748299
0.0748464
0.0747829
0.0748158
0.0749677
0.0749068
0.0749264
0.0748708
0.07486
0.0748338
0.0747872
0.0747952
0.0747342
0.0747607
0.0749661
0.0749045
0.0749117
0.0748509
0.0748299
0.0747957
0.0747424
0.0747407
0.0746798
0.0746992
0.0749741
0.0749095
0.0749027
0.0748343
0.0748007
0.0747561
0.0746941
0.0746808
0.0746172
0.0746287
0.0749936
0.0749234
0.0749002
0.074821
0.0747718
0.0747138
0.0746401
0.0746128
0.0745436
0.0745466
0.0750259
0.0749477
0.074905
0.0748111
0.0747427
0.0746672
0.0745779
0.0745333
0.0744549
0.0744487
0.0750726
0.0749844
0.0749182
0.0748048
0.0747123
0.0746143
0.0745044
0.0744381
0.0743462
0.0743295
0.0751348
0.0750353
0.0749405
0.0748018
0.0746796
0.0745527
0.0744153
0.0743214
0.0742101
0.0741808
0.0752128
0.0751019
0.0749725
0.0748018
0.0746429
0.0744791
0.0743055
0.0741755
0.0740368
0.0739914
0.0753053
0.0751849
0.0750149
0.0748045
0.0746005
0.0743898
0.0741681
0.0739901
0.0738121
0.0737449
0.0754091
0.0752837
0.075068
0.0748095
0.0745509
0.0742805
0.0739946
0.0737506
0.0735155
0.0734166
0.0755188
0.0753954
0.075132
0.0748175
0.0744935
0.0741473
0.0737747
0.0734374
0.073116
0.0729682
0.0756274
0.0755143
0.0752075
0.0748313
0.0744306
0.0739885
0.0734978
0.073024
0.0725658
0.0723354
0.0757271
0.0756326
0.0752961
0.074858
0.07437
0.0738079
0.073155
0.072476
0.0717881
0.0714051
0.0758114
0.0757424
0.0754011
0.0749125
0.0743324
0.0736243
0.0727491
0.0717566
0.0706606
0.0699444
0.0758783
0.0758366
0.0755265
0.0750199
0.0743573
0.0734791
0.0723015
0.0708252
0.0689903
0.0674593
0.0759301
0.0759107
0.0756797
0.0752291
0.0745328
0.0734815
0.0719217
0.0697016
0.0665783
0.0624801
0.0759685
0.075959
0.0758675
0.0755922
0.0749618
0.0737598
0.0717579
0.0683127
0.0634126
0.0513651
0.0760899
0.0761305
0.0758175
0.0756936
0.0756517
0.0756501
0.0756892
0.0758106
0.0761215
0.0760751
0.0756502
0.0756313
0.0755975
0.0755997
0.0755845
0.0755829
0.075595
0.0755901
0.0756214
0.0756366
0.075497
0.0753082
0.0753926
0.0754487
0.0754502
0.0754484
0.0754434
0.0753842
0.0752968
0.0754821
0.0754422
0.0751991
0.0752966
0.0753248
0.0753222
0.07532
0.0753183
0.0752864
0.0751852
0.0754246
0.0753657
0.0751529
0.0752539
0.0752473
0.0752413
0.0752385
0.0752391
0.0752412
0.0751357
0.075344
0.0752762
0.0751043
0.0752088
0.0751858
0.0751859
0.0751825
0.0751754
0.0751927
0.0750825
0.0752488
0.0751995
0.0750571
0.075156
0.0751247
0.0751324
0.0751281
0.0751113
0.0751354
0.0750292
0.0751641
0.0751411
0.0750203
0.0751074
0.075069
0.0750804
0.0750749
0.0750516
0.0750807
0.0749844
0.0750953
0.0750945
0.074992
0.0750669
0.0750232
0.0750349
0.0750279
0.0750006
0.0750322
0.0749457
0.0750357
0.0750544
0.0749679
0.075032
0.0749853
0.0749956
0.0749865
0.0749558
0.0749866
0.0749079
0.0749791
0.0750206
0.0749466
0.0750003
0.0749517
0.0749593
0.0749475
0.0749134
0.0749411
0.0748686
0.0749239
0.0749949
0.0749287
0.0749714
0.0749213
0.0749245
0.0749092
0.0748717
0.0748944
0.074827
0.0748702
0.0749775
0.0749151
0.0749464
0.0748943
0.0748914
0.0748714
0.0748299
0.0748464
0.0747828
0.0748161
0.0749677
0.0749067
0.0749263
0.0748708
0.07486
0.0748339
0.0747873
0.0747957
0.0747345
0.0747601
0.0749661
0.0749045
0.0749115
0.0748509
0.0748299
0.0747958
0.0747425
0.0747411
0.07468
0.0746989
0.0749743
0.0749095
0.0749025
0.0748342
0.0748007
0.0747562
0.0746941
0.074681
0.0746175
0.0746289
0.0749937
0.0749233
0.0749
0.074821
0.0747719
0.0747138
0.0746401
0.0746128
0.0745438
0.0745471
0.075026
0.0749477
0.074905
0.0748112
0.0747429
0.0746673
0.0745779
0.0745334
0.0744552
0.0744492
0.0750728
0.0749844
0.0749182
0.074805
0.0747126
0.0746145
0.0745045
0.0744382
0.0743464
0.0743298
0.075135
0.0750354
0.0749406
0.074802
0.0746799
0.0745529
0.0744155
0.0743216
0.0742103
0.0741809
0.0752131
0.075102
0.0749727
0.0748021
0.0746432
0.0744794
0.0743058
0.0741758
0.0740369
0.0739914
0.0753056
0.0751851
0.0750151
0.0748047
0.0746009
0.0743901
0.0741684
0.0739904
0.0738123
0.0737448
0.0754095
0.075284
0.0750681
0.0748097
0.0745513
0.0742808
0.0739949
0.0737509
0.0735157
0.0734165
0.0755191
0.0753956
0.0751322
0.0748177
0.0744939
0.0741476
0.0737749
0.0734376
0.0731161
0.0729681
0.0756276
0.0755145
0.0752077
0.0748315
0.0744309
0.0739887
0.073498
0.0730241
0.0725659
0.0723352
0.0757272
0.0756328
0.0752963
0.0748581
0.0743701
0.073808
0.073155
0.0724759
0.0717878
0.0714047
0.0758115
0.0757425
0.0754013
0.0749125
0.0743323
0.0736241
0.0727488
0.071756
0.0706596
0.0699429
0.0758784
0.0758367
0.0755266
0.0750196
0.0743567
0.0734782
0.0723004
0.0708235
0.0689876
0.0674551
0.0759304
0.0759109
0.0756795
0.0752281
0.0745311
0.0734793
0.071919
0.0696978
0.0665724
0.0624666
0.0759689
0.0759592
0.0758666
0.0755898
0.074958
0.0737553
0.0717527
0.068305
0.0634014
0.0513269
0.0761262
0.0761691
0.0758577
0.0757341
0.0756922
0.0756907
0.0757297
0.0758508
0.0761601
0.0761114
0.0756621
0.0756449
0.0756111
0.0756133
0.0755982
0.0755966
0.0756086
0.0756037
0.075635
0.0756486
0.0754933
0.0753054
0.0753894
0.0754454
0.075447
0.0754451
0.0754401
0.075381
0.075294
0.0754784
0.07544
0.0751986
0.0752965
0.0753251
0.0753227
0.0753205
0.0753185
0.0752863
0.0751847
0.0754223
0.0753655
0.0751542
0.0752559
0.07525
0.0752445
0.0752418
0.0752418
0.0752432
0.0751369
0.0753437
0.0752729
0.0751002
0.0752042
0.0751818
0.0751822
0.0751788
0.0751714
0.0751881
0.0750783
0.0752455
0.0751925
0.0750465
0.0751435
0.0751124
0.0751201
0.0751158
0.075099
0.0751229
0.0750186
0.0751571
0.0751321
0.075006
0.0750904
0.0750519
0.0750629
0.0750574
0.0750346
0.0750637
0.0749702
0.0750862
0.0750841
0.0749762
0.0750481
0.0750042
0.0750152
0.0750082
0.0749816
0.0750133
0.0749298
0.0750253
0.0750433
0.0749514
0.0750124
0.0749654
0.0749748
0.0749658
0.074936
0.0749668
0.0748912
0.0749678
0.0750092
0.07493
0.0749804
0.0749317
0.0749382
0.0749264
0.0748934
0.074921
0.0748517
0.0749119
0.0749834
0.0749124
0.074952
0.0749019
0.0749039
0.0748886
0.0748521
0.0748747
0.0748107
0.0748576
0.0749662
0.0748996
0.0749281
0.0748761
0.0748719
0.0748518
0.0748115
0.0748275
0.0747672
0.0748037
0.074957
0.0748924
0.0749093
0.074854
0.0748418
0.0748156
0.0747703
0.0747785
0.0747201
0.0747473
0.0749563
0.0748914
0.074896
0.0748356
0.0748134
0.0747792
0.0747271
0.0747255
0.074667
0.0746867
0.0749656
0.0748981
0.0748887
0.0748208
0.074786
0.0747413
0.0746803
0.0746666
0.0746055
0.0746186
0.0749864
0.0749138
0.0748882
0.0748095
0.074759
0.0747007
0.0746279
0.0746
0.0745332
0.0745381
0.0750204
0.0749403
0.0748954
0.0748018
0.074732
0.0746561
0.0745676
0.0745224
0.074446
0.0744413
0.0750692
0.0749796
0.0749112
0.0747979
0.074704
0.0746055
0.0744961
0.0744292
0.0743387
0.0743231
0.0751339
0.0750335
0.0749365
0.0747977
0.074674
0.0745463
0.0744094
0.0743147
0.0742043
0.0741757
0.0752148
0.0751036
0.0749721
0.074801
0.0746404
0.0744757
0.0743023
0.0741714
0.0740332
0.073988
0.0753105
0.0751905
0.0750186
0.0748074
0.0746016
0.0743897
0.0741681
0.0739889
0.0738112
0.0737439
0.0754173
0.0752932
0.0750761
0.0748167
0.0745562
0.0742843
0.0739982
0.073753
0.0735179
0.0734189
0.0755288
0.0754078
0.0751448
0.0748295
0.0745036
0.0741555
0.0737823
0.0734437
0.0731223
0.0729745
0.0756371
0.0755276
0.0752242
0.0748481
0.0744451
0.0740007
0.0735091
0.0730341
0.0725762
0.072346
0.0757332
0.0756434
0.0753147
0.0748781
0.0743872
0.0738219
0.0731676
0.0724878
0.0718009
0.071419
0.0758105
0.0757466
0.0754174
0.0749315
0.0743467
0.0736334
0.0727561
0.0717631
0.0706694
0.0699556
0.0758686
0.0758313
0.0755331
0.075027
0.0743558
0.0734692
0.0722875
0.0708105
0.0689794
0.0674517
0.0759132
0.0758964
0.0756656
0.0752038
0.0744912
0.0734259
0.0718571
0.0696325
0.0665102
0.0624112
0.0759469
0.0759351
0.0758133
0.0755014
0.0748423
0.0736186
0.0715993
0.0681386
0.0632307
0.051155
0.0762455
0.0762859
0.0759792
0.0758566
0.075815
0.0758135
0.0758521
0.0759723
0.076277
0.0762309
0.0756582
0.0756366
0.075608
0.0756098
0.0755947
0.0755931
0.0756051
0.0756006
0.0756267
0.0756447
0.0754432
0.0752487
0.0753342
0.0753879
0.0753894
0.0753875
0.0753825
0.0753258
0.0752373
0.0754282
0.07541
0.0751691
0.0752682
0.0752947
0.0752927
0.0752904
0.0752881
0.0752579
0.0751551
0.0753922
0.0753601
0.0751559
0.0752599
0.0752537
0.0752489
0.0752462
0.0752454
0.0752471
0.0751385
0.0753382
0.0752801
0.0751168
0.0752228
0.0752013
0.0752023
0.075199
0.0751909
0.0752067
0.0750948
0.0752525
0.0752065
0.0750707
0.0751693
0.0751398
0.0751475
0.0751433
0.0751263
0.0751486
0.0750429
0.0751712
0.0751508
0.0750356
0.075122
0.0750857
0.0750965
0.075091
0.0750682
0.0750949
0.0749999
0.0751059
0.0751056
0.075009
0.0750832
0.0750418
0.0750528
0.0750457
0.0750191
0.0750479
0.0749623
0.0750485
0.0750657
0.0749853
0.0750482
0.0750037
0.0750133
0.075004
0.0749743
0.0750023
0.0749241
0.0749925
0.0750316
0.0749634
0.0750154
0.074969
0.0749757
0.0749636
0.0749307
0.0749555
0.0748838
0.0749369
0.0750053
0.0749439
0.0749854
0.0749375
0.0749397
0.0749239
0.0748877
0.0749078
0.0748412
0.0748817
0.074987
0.0749288
0.0749598
0.0749094
0.0749055
0.0748848
0.0748445
0.0748587
0.0747961
0.0748258
0.0749764
0.0749192
0.0749387
0.0748845
0.074873
0.0748462
0.0748005
0.0748081
0.0747475
0.0747654
0.0749744
0.0749162
0.0749228
0.0748634
0.0748421
0.0748073
0.0747548
0.0747518
0.0746922
0.074704
0.0749827
0.0749211
0.0749137
0.0748462
0.0748123
0.074767
0.0747054
0.0746889
0.074628
0.0746383
0.0750029
0.0749354
0.0749118
0.0748329
0.0747833
0.0747244
0.074651
0.0746202
0.074554
0.0745579
0.075037
0.0749611
0.0749182
0.074824
0.0747548
0.0746781
0.0745891
0.0745413
0.0744657
0.0744607
0.0750866
0.0750004
0.074934
0.0748195
0.074726
0.0746265
0.0745166
0.0744473
0.0743578
0.0743425
0.0751532
0.0750556
0.0749606
0.0748199
0.0746961
0.0745673
0.0744297
0.0743328
0.0742237
0.0741957
0.0752374
0.0751284
0.0749989
0.0748252
0.0746639
0.0744977
0.0743235
0.0741907
0.0740538
0.0740098
0.0753378
0.0752198
0.0750498
0.0748355
0.0746282
0.0744144
0.0741916
0.0740107
0.0738345
0.073769
0.07545
0.0753282
0.0751134
0.0748508
0.0745879
0.0743135
0.0740259
0.073779
0.0735459
0.0734493
0.0755661
0.0754488
0.0751896
0.0748719
0.0745424
0.0741911
0.073816
0.0734759
0.0731573
0.0730131
0.0756755
0.0755726
0.0752772
0.0749005
0.074493
0.0740439
0.0735498
0.0730739
0.0726205
0.0723958
0.0757661
0.0756873
0.0753744
0.0749406
0.0744432
0.073871
0.0732134
0.0725338
0.0718552
0.0714825
0.0758293
0.0757807
0.0754782
0.0749976
0.0744023
0.0736783
0.0727963
0.0718055
0.0707276
0.0700306
0.075865
0.0758452
0.0755805
0.0750751
0.0743848
0.0734812
0.0722928
0.0708207
0.0690179
0.0675225
0.075879
0.0758758
0.07566
0.0751767
0.0744309
0.0733419
0.0717632
0.0695431
0.0664597
0.0624118
0.0758868
0.0758636
0.0756818
0.075295
0.0745885
0.073345
0.0713183
0.0678567
0.0629793
0.0509323
0.0765802
0.0766144
0.0762852
0.0761672
0.0761272
0.0761256
0.0761628
0.0762783
0.0766055
0.0765662
0.0757193
0.0756698
0.0756354
0.0756424
0.0756272
0.0756256
0.0756376
0.075628
0.0756598
0.0757057
0.0753794
0.075162
0.0752472
0.0753024
0.0753034
0.0753015
0.075297
0.0752387
0.0751505
0.0753641
0.0753238
0.0750665
0.0751672
0.0751949
0.0751932
0.0751909
0.0751883
0.0751568
0.0750524
0.0753057
0.0752724
0.0750506
0.0751536
0.0751496
0.0751455
0.0751428
0.0751413
0.0751407
0.0750329
0.0752502
0.075196
0.0750124
0.0751137
0.0750943
0.0750948
0.0750915
0.0750838
0.0750975
0.07499
0.0751679
0.0751296
0.0749745
0.0750668
0.075039
0.0750448
0.0750406
0.0750255
0.0750463
0.0749464
0.0750933
0.0750823
0.0749509
0.075031
0.0749964
0.0750044
0.0749991
0.0749791
0.0750043
0.074915
0.0750355
0.0750451
0.0749347
0.075003
0.0749637
0.0749716
0.0749647
0.0749411
0.074968
0.0748884
0.0749861
0.075012
0.07492
0.0749775
0.074935
0.0749414
0.0749322
0.0749056
0.0749314
0.0748595
0.0749377
0.0749835
0.074906
0.0749532
0.0749085
0.074912
0.0749
0.0748702
0.0748929
0.0748272
0.0748886
0.074963
0.0748938
0.0749309
0.0748846
0.0748837
0.074868
0.0748348
0.0748529
0.0747916
0.074839
0.0749503
0.0748854
0.0749125
0.0748636
0.0748567
0.0748361
0.0747987
0.074811
0.0747523
0.0747881
0.0749446
0.0748821
0.0748985
0.0748456
0.0748309
0.074804
0.0747609
0.0747658
0.0747081
0.0747339
0.0749473
0.074885
0.0748891
0.0748305
0.074806
0.0747709
0.0747205
0.0747158
0.0746575
0.0746759
0.0749599
0.0748953
0.0748858
0.0748189
0.0747818
0.0747359
0.0746761
0.0746598
0.0745991
0.074611
0.0749844
0.074915
0.0748895
0.0748109
0.0747582
0.0746984
0.0746263
0.0745962
0.0745292
0.0745338
0.0750232
0.0749463
0.0749013
0.0748071
0.0747348
0.0746571
0.0745689
0.0745216
0.0744445
0.0744404
0.0750782
0.0749919
0.0749229
0.0748082
0.0747114
0.0746106
0.074501
0.0744319
0.0743405
0.0743262
0.0751515
0.0750546
0.0749561
0.0748147
0.0746873
0.0745569
0.0744191
0.074322
0.0742107
0.074184
0.0752439
0.0751368
0.0750023
0.0748273
0.0746619
0.0744936
0.0743187
0.0741849
0.074046
0.0740034
0.0753544
0.0752399
0.0750631
0.0748467
0.0746347
0.0744181
0.074194
0.0740114
0.0738336
0.0737696
0.0754786
0.0753625
0.0751397
0.074874
0.0746055
0.0743273
0.0740377
0.0737884
0.0735544
0.0734598
0.0756066
0.0754987
0.0752326
0.074911
0.0745749
0.0742184
0.0738407
0.0734975
0.0731793
0.0730379
0.0757232
0.0756363
0.0753417
0.0749618
0.0745458
0.0740895
0.0735919
0.0731126
0.0726622
0.0724427
0.0758111
0.0757574
0.0754661
0.075033
0.0745234
0.0739401
0.0732777
0.0725958
0.0719263
0.071564
0.075862
0.0758441
0.0755994
0.07513
0.0745157
0.0737729
0.0728839
0.0718947
0.0708406
0.0701671
0.0758835
0.0759013
0.0757288
0.0752435
0.0745218
0.0735863
0.0723872
0.0709246
0.0691825
0.0677446
0.0758675
0.0759029
0.0757783
0.0753079
0.074515
0.073377
0.071781
0.0695806
0.0666311
0.0627497
0.075832
0.0758013
0.0755997
0.0751382
0.0743405
0.0730351
0.0709904
0.0675641
0.0629169
0.0513415
0.0762987
0.0765774
0.0762407
0.0761199
0.0760821
0.0760806
0.0761154
0.0762336
0.0765676
0.0762839
0.0757332
0.0757174
0.0756549
0.0756573
0.0756438
0.0756422
0.0756525
0.0756472
0.0757069
0.0757192
0.0756145
0.0753777
0.07544
0.0754885
0.0754904
0.0754885
0.0754829
0.0754311
0.0753657
0.075599
0.075586
0.0753219
0.0754066
0.0754346
0.0754346
0.0754323
0.0754277
0.0753957
0.0753076
0.0755678
0.0754899
0.0752703
0.0753561
0.0753591
0.0753564
0.0753535
0.0753504
0.0753426
0.0752526
0.075468
0.075368
0.0751933
0.0752752
0.0752648
0.0752644
0.0752606
0.0752539
0.0752579
0.0751709
0.0753406
0.075267
0.0751259
0.0751996
0.0751814
0.0751843
0.0751794
0.0751677
0.0751778
0.0750971
0.0752322
0.0751923
0.075077
0.075141
0.0751169
0.0751208
0.0751147
0.0750995
0.0751138
0.0750401
0.0751477
0.0751331
0.0750382
0.0750932
0.0750649
0.0750679
0.0750602
0.0750424
0.0750582
0.0749918
0.0750766
0.0750832
0.0750032
0.0750504
0.0750192
0.0750205
0.0750109
0.0749897
0.0750048
0.0749448
0.0750115
0.0750419
0.0749722
0.0750118
0.0749779
0.0749768
0.0749647
0.0749398
0.0749525
0.0748974
0.0749501
0.0750106
0.0749481
0.0749786
0.0749414
0.0749369
0.0749213
0.0748922
0.0749014
0.0748494
0.0748916
0.0749892
0.074931
0.0749512
0.0749109
0.0749011
0.0748809
0.0748474
0.0748511
0.0748005
0.0748339
0.074977
0.0749206
0.0749314
0.0748864
0.0748687
0.0748422
0.0748035
0.0748003
0.0747489
0.0747746
0.0749748
0.0749178
0.0749188
0.0748664
0.0748387
0.0748036
0.0747575
0.0747463
0.0746928
0.0747114
0.074984
0.0749237
0.0749125
0.0748504
0.0748107
0.0747643
0.0747081
0.0746867
0.0746295
0.0746415
0.0750064
0.0749402
0.0749139
0.0748391
0.0747843
0.0747238
0.0746545
0.07462
0.0745565
0.0745615
0.0750442
0.0749702
0.0749249
0.0748334
0.0747594
0.0746809
0.0745948
0.0745436
0.0744703
0.0744671
0.0751
0.0750165
0.0749472
0.0748341
0.0747359
0.0746342
0.0745261
0.0744537
0.0743663
0.0743535
0.075176
0.0750824
0.0749829
0.0748421
0.0747134
0.0745819
0.0744452
0.0743455
0.0742384
0.0742136
0.0752732
0.0751708
0.0750339
0.0748585
0.0746918
0.0745223
0.0743479
0.0742125
0.074078
0.0740378
0.07539
0.0752828
0.0751025
0.0748845
0.0746712
0.0744533
0.0742294
0.074046
0.0738732
0.073812
0.0755197
0.0754156
0.07519
0.0749219
0.0746522
0.074373
0.0740834
0.0738343
0.0736065
0.0735152
0.0756494
0.0755593
0.0752966
0.0749738
0.0746368
0.0742798
0.0739024
0.0735611
0.0732516
0.0731143
0.0757599
0.0756943
0.0754202
0.0750454
0.074629
0.0741729
0.0736773