/*--------------------------------*- C++ -*----------------------------------*\
| =========                 |                                                 |
| \\      /  F ield         | OpenFOAM: The Open Source CFD Toolbox           |
|  \\    /   O peration     | Version:  4.1                                   |
|   \\  /    A nd           | Web:      www.OpenFOAM.org                      |
|    \\/     M anipulation  |                                                 |
\*---------------------------------------------------------------------------*/
FoamFile
{
    version     2.0;
    format      ascii;
    class       surfaceScalarField;
    location    "500";
    object      phi;
}
// * * * * * * * * * * * * * * * * * * * * * * * * * * * * * * * * * * * * * //

dimensions      [0 3 -1 0 0 0 0];

internalField   nonuniform List<scalar> 
33700
(
4.95657e-05
0.000900946
4.94874e-05
2.31219e-05
0.000971157
5.52849e-05
8.44093e-06
0.000957276
5.74032e-05
3.15275e-06
0.000948095
5.71913e-05
8.54611e-08
0.000945641
5.74246e-05
-2.98933e-06
0.000945649
5.7424e-05
-8.29593e-06
0.000948116
5.71898e-05
-2.30042e-05
0.000957307
5.73992e-05
-4.94781e-05
0.000971198
5.52738e-05
0.000900953
4.95666e-05
3.1321e-05
0.000838462
3.11544e-05
2.38083e-05
0.000939489
3.91694e-05
1.34301e-05
0.000926639
4.10021e-05
6.13597e-06
0.000915078
4.02984e-05
2.15113e-07
0.000910877
4.06719e-05
-5.72241e-06
0.000910904
4.06706e-05
-1.30489e-05
0.000915148
4.02816e-05
-2.34266e-05
0.000926725
4.09459e-05
-3.09294e-05
0.000939562
3.91256e-05
0.00083876
3.12555e-05
1.6342e-05
0.000806037
1.60638e-05
1.69045e-05
0.000915074
2.38304e-05
1.17755e-05
0.000906976
2.47695e-05
6.07229e-06
0.000896565
2.41932e-05
3.80856e-07
0.000891879
2.46663e-05
-5.33595e-06
0.000891936
2.46622e-05
-1.11075e-05
0.000896722
2.41757e-05
-1.62879e-05
0.000907166
2.47192e-05
-1.58089e-05
0.00091523
2.38344e-05
0.000806852
1.60888e-05
9.00063e-06
0.000788421
8.58765e-06
1.20766e-05
0.000897502
1.44661e-05
9.63484e-06
0.000895166
1.42204e-05
5.26722e-06
0.000886445
1.44544e-05
5.86895e-07
0.000881476
1.50502e-05
-4.13828e-06
0.000881578
1.50501e-05
-8.62014e-06
0.00088674
1.44329e-05
-1.11872e-05
0.00089554
1.41652e-05
-8.32569e-06
0.000897823
1.45216e-05
0.000789874
8.63912e-06
5.59895e-06
0.000777774
5.014e-06
9.27657e-06
0.000884455
9.33311e-06
8.37542e-06
0.000888314
7.71443e-06
4.80109e-06
0.000881021
8.95854e-06
8.50866e-07
0.000875757
9.6296e-06
-3.16896e-06
0.000875929
9.6296e-06
-6.92084e-06
0.000881512
8.94168e-06
-8.04104e-06
0.000888971
7.65594e-06
-4.70104e-06
0.000885005
9.4494e-06
0.000780124
5.03466e-06
4.42726e-06
0.00076969
3.62068e-06
7.36657e-06
0.000874293
7.18369e-06
7.49355e-06
0.000884075
4.07163e-06
4.56027e-06
0.000877774
6.13805e-06
1.18312e-06
0.000872388
6.70352e-06
-2.2711e-06
0.00087264
6.69999e-06
-5.47073e-06
0.000878529
6.14156e-06
-5.69426e-06
0.000885106
4.05217e-06
-3.20041e-06
0.00087513
7.35105e-06
0.000773316
3.5918e-06
4.31876e-06
0.000762108
3.22592e-06
6.04529e-06
0.00086598
6.54846e-06
6.8482e-06
0.000881051
2.18042e-06
4.4327e-06
0.00087525
4.89874e-06
1.61159e-06
0.000869967
5.19971e-06
-1.3019e-06
0.000870306
5.20609e-06
-4.07261e-06
0.000876354
4.90636e-06
-3.79777e-06
0.000882633
2.16291e-06
-2.63872e-06
0.000867214
6.72752e-06
0.000767463
3.19851e-06
4.57746e-06
0.00075439
3.10891e-06
5.23081e-06
0.000858885
6.4071e-06
6.54606e-06
0.000878585
1.1145e-06
4.50627e-06
0.00087287
4.38179e-06
2.17099e-06
0.000867888
4.37572e-06
-2.98896e-07
0.000868373
4.36432e-06
-2.79961e-06
0.000874417
4.40164e-06
-2.1872e-06
0.000880949
1.04093e-06
-2.28539e-06
0.000860714
6.57103e-06
0.000762022
3.13985e-06
4.95505e-06
0.000746413
2.99564e-06
4.83427e-06
0.000852661
6.31519e-06
6.62219e-06
0.000876377
3.88286e-07
4.86029e-06
0.000870478
4.12039e-06
2.89662e-06
0.000866016
3.80097e-06
7.44982e-07
0.00086673
3.76169e-06
-1.6565e-06
0.000872665
4.12346e-06
-7.52432e-07
0.000879722
2.94108e-07
-1.84651e-06
0.000855325
6.45874e-06
0.000757042
3.11877e-06
5.44655e-06
0.00073809
2.85354e-06
4.74155e-06
0.000847225
6.11744e-06
7.0483e-06
0.000874212
-1.68226e-07
5.51661e-06
0.000868045
3.93538e-06
3.82528e-06
0.00086436
3.31917e-06
1.89846e-06
0.000865334
3.29489e-06
-4.90908e-07
0.000871088
3.93867e-06
6.84285e-07
0.000878805
-2.81678e-07
-1.32774e-06
0.000850959
6.35614e-06
0.00075256
3.13925e-06
6.1984e-06
0.00072908
2.79404e-06
4.86876e-06
0.000842622
5.91414e-06
7.80668e-06
0.000871909
-6.57397e-07
6.50451e-06
0.000865576
3.7491e-06
5.01678e-06
0.00086291
2.91474e-06
3.25991e-06
0.000864177
2.89133e-06
8.33253e-07
0.000869655
3.83785e-06
2.02517e-06
0.000878238
-6.45929e-07
-6.84349e-07
0.000847489
6.15926e-06
0.000748709
3.15276e-06
7.13065e-06
0.000719291
2.64599e-06
5.77181e-06
0.000838363
5.60277e-06
9.01505e-06
0.000869548
-8.98209e-07
7.87597e-06
0.000863125
3.57279e-06
6.55631e-06
0.000861667
2.54471e-06
4.95928e-06
0.00086323
2.52636e-06
2.39245e-06
0.00086845
3.75395e-06
3.34394e-06
0.00087806
-7.9148e-07
1.43705e-07
0.00084469
5.9818e-06
0.000745717
3.12262e-06
8.25058e-06
0.000708719
2.31121e-06
7.48424e-06
0.000833726
5.39202e-06
1.08043e-05
0.000867126
-9.08938e-07
9.83569e-06
0.00086072
3.35919e-06
8.55953e-06
0.000860847
2.08246e-06
7.06437e-06
0.000862597
2.11269e-06
4.2415e-06
0.000867653
3.60401e-06
4.87698e-06
0.000878353
-9.45312e-07
1.06499e-06
0.000842687
5.79752e-06
0.000743606
3.16304e-06
9.85018e-06
0.000696819
2.03949e-06
9.67175e-06
0.000828688
5.2076e-06
1.33321e-05
0.000864352
-8.98024e-07
1.28668e-05
0.00085809
3.08437e-06
1.09562e-05
0.000860795
1.95077e-06
9.69957e-06
0.00086224
1.60044e-06
6.48431e-06
0.000867404
3.44952e-06
6.73885e-06
0.000879197
-1.11386e-06
2.13841e-06
0.000841698
5.5731e-06
0.00074248
3.25121e-06
1.19858e-05
0.000682981
1.84138e-06
1.23588e-05
0.000823266
5.03739e-06
1.65332e-05
0.000860972
-8.06274e-07
1.62868e-05
0.000855289
3.03612e-06
1.46258e-05
0.000860709
1.73554e-06
1.31877e-05
0.000862253
1.41279e-06
9.47308e-06
0.000867712
3.3936e-06
9.12302e-06
0.000880696
-1.16393e-06
3.51365e-06
0.000841931
5.35945e-06
0.000742658
3.32238e-06
1.47895e-05
0.000666473
1.70574e-06
1.59588e-05
0.000817192
4.89285e-06
2.06052e-05
0.000856857
-5.4356e-07
2.03515e-05
0.000852312
3.21813e-06
1.97878e-05
0.000859524
1.73708e-06
1.77873e-05
0.000862681
1.56062e-06
1.3505e-05
0.000868536
3.4453e-06
1.21911e-05
0.000883056
-1.06018e-06
5.24246e-06
0.000843654
5.20934e-06
0.000744467
3.42045e-06
1.84646e-05
0.000646333
1.66177e-06
2.08793e-05
0.000809939
4.82506e-06
2.61064e-05
0.000851753
-1.35209e-07
2.6178e-05
0.000848847
3.38173e-06
2.59761e-05
0.000857653
2.06166e-06
2.36712e-05
0.000863284
1.69166e-06
1.86722e-05
0.000869981
3.54169e-06
1.60762e-05
0.000886494
-8.55326e-07
7.41766e-06
0.000847195
5.10275e-06
0.000748261
3.61165e-06
2.32059e-05
0.000621309
1.80294e-06
2.74644e-05
0.00080076
4.9075e-06
3.34617e-05
0.000845306
4.37603e-07
3.40003e-05
0.000844714
3.58354e-06
3.38576e-05
0.000855367
2.41962e-06
3.12008e-05
0.000864066
1.86482e-06
2.52572e-05
0.000872228
3.6862e-06
2.1072e-05
0.000891219
-5.528e-07
1.02064e-05
0.000852965
5.08075e-06
0.000754501
3.95365e-06
2.92171e-05
0.000589795
2.28382e-06
3.61684e-05
0.000788543
5.25432e-06
4.31333e-05
0.000837108
1.22283e-06
4.42303e-05
0.000839682
3.92696e-06
4.40636e-05
0.0008526
2.92522e-06
4.09043e-05
0.000865035
2.18239e-06
3.37313e-05
0.000875456
3.93612e-06
2.75513e-05
0.000897458
-7.02459e-08
1.38223e-05
0.000861477
5.20274e-06
0.000763811
4.50117e-06
3.66554e-05
0.000549838
3.28904e-06
4.75733e-05
0.000771592
6.02361e-06
5.57304e-05
0.000826605
2.33762e-06
5.74725e-05
0.000833407
4.5262e-06
5.72808e-05
0.000849103
3.68321e-06
5.34834e-05
0.000866083
2.74374e-06
4.47171e-05
0.000879831
4.38349e-06
3.59939e-05
0.000905505
6.65938e-07
1.85489e-05
0.000873357
5.5516e-06
0.000777009
5.33902e-06
4.55544e-05
0.000499238
5.03547e-06
6.22854e-05
0.000747418
7.43514e-06
7.20161e-05
0.000812925
3.94307e-06
7.45205e-05
0.000825377
5.51979e-06
7.43365e-05
0.000844454
4.82817e-06
6.98077e-05
0.000866923
3.68365e-06
5.90701e-05
0.000885423
5.138e-06
4.70865e-05
0.000915745
1.73348e-06
2.47909e-05
0.000889404
6.23497e-06
0.00079519
6.59836e-06
5.57e-05
0.000435732
7.79913e-06
8.07363e-05
0.000712586
9.79079e-06
9.2859e-05
0.000794572
6.22629e-06
9.63369e-05
0.00081481
7.08616e-06
9.62699e-05
0.000837999
6.51832e-06
9.10125e-05
0.000867
5.17533e-06
7.79507e-05
0.00089212
6.35806e-06
6.1802e-05
0.0009286
3.28437e-06
3.31372e-05
0.000910632
7.42398e-06
0.000819854
8.46164e-06
6.63504e-05
0.0003577
1.16784e-05
0.000102944
0.000662639
1.33503e-05
0.000119066
0.000768913
9.53461e-06
0.000124035
0.000800357
9.48106e-06
0.000124394
0.000828674
8.96266e-06
0.000118614
0.00086532
7.45584e-06
0.000102977
0.000899469
8.28122e-06
8.15635e-05
0.000944464
5.54024e-06
4.45135e-05
0.000938336
9.33263e-06
0.000853181
1.11745e-05
7.59058e-05
0.000265367
1.64261e-05
0.000127723
0.000592651
1.81704e-05
0.000151023
0.000731414
1.41973e-05
0.000158859
0.000779425
1.30928e-05
0.000160366
0.000814707
1.24573e-05
0.000154635
0.000860216
1.08288e-05
0.000136478
0.000906391
1.12283e-05
0.000108613
0.000963513
8.80475e-06
6.03369e-05
0.000974285
1.23126e-05
0.000898394
1.51103e-05
8.15303e-05
0.000162738
2.11027e-05
0.000151744
0.000498656
2.37815e-05
0.000187844
0.000674831
2.04825e-05
0.00020193
0.000746846
1.84909e-05
0.000206222
0.000792958
1.74523e-05
0.000201769
0.000848983
1.56793e-05
0.000181817
0.000910719
1.56141e-05
0.000146518
0.000985307
1.34929e-05
8.31654e-05
0.00102076
1.68623e-05
0.000960723
2.08216e-05
7.82515e-05
6.12743e-05
2.32186e-05
0.000168321
0.000379855
2.87333e-05
0.000226015
0.000588608
2.85291e-05
0.000253551
0.000692724
2.65854e-05
0.000264487
0.000757288
2.47292e-05
0.000263818
0.000827129
2.25152e-05
0.000244036
0.000908545
2.19464e-05
0.000201038
0.00100813
2.01581e-05
0.0001173
0.00108086
2.36205e-05
0.00104896
2.90518e-05
5.67519e-05
-1.70222e-05
2.15573e-05
0.000167262
0.000238539
3.08116e-05
0.000258029
0.000460162
3.76811e-05
0.000311005
0.000601378
3.83713e-05
0.000336936
0.000695783
3.55711e-05
0.000345459
0.000786409
3.21926e-05
0.000330486
0.000892646
3.08599e-05
0.00028215
0.00102697
2.94865e-05
0.000173438
0.00115593
3.36285e-05
0.0011811
4.12822e-05
1.00716e-05
-5.48912e-05
2.78015e-05
0.00013923
7.18528e-05
3.75295e-05
0.00027214
0.000277126
5.01267e-05
0.000367311
0.000451711
5.44928e-05
0.000424306
0.000587619
5.11625e-05
0.000453402
0.000711554
4.5747e-05
0.000452679
0.00085037
4.29846e-05
0.000406012
0.00103174
4.18802e-05
0.000269185
0.00124499
4.77473e-05
0.00139136
5.89089e-05
5.96096e-07
-8.63396e-05
3.07904e-05
0.000102243
-7.80203e-05
4.81937e-05
0.000250898
5.94313e-05
6.90165e-05
0.000392931
0.000230801
7.88539e-05
0.000507115
0.000398344
7.50645e-05
0.00058556
0.000567078
6.6002e-05
0.000626209
0.000749728
5.99606e-05
0.000597748
0.00100187
5.82979e-05
0.000476648
0.00129838
6.76764e-05
0.00178255
8.54336e-05
7.89865e-05
5.58349e-06
-0.000170992
0.000179354
2.34934e-05
-0.000201946
0.00028566
5.87857e-05
-0.000105711
0.000409173
8.66837e-05
2.0565e-05
0.000559684
9.5979e-05
0.000151813
0.000712598
9.04064e-05
0.000323712
0.000851939
8.06896e-05
0.000529645
0.00090453
7.61399e-05
0.000873086
0.000891355
8.56458e-05
0.00122585
0.000120317
0.00255356
5.5351e-05
0.000971087
2.30461e-05
2.07347e-05
0.00106922
2.0678e-05
6.59349e-06
0.00105017
2.13736e-05
2.34511e-06
0.00103987
2.15625e-05
6.295e-08
0.00103802
2.16848e-05
-2.22648e-06
0.00103803
2.16838e-05
-6.49837e-06
0.0010399
2.15589e-05
-2.07272e-05
0.00105026
2.13654e-05
-5.56323e-05
0.00106948
2.06936e-05
0.000970822
2.31105e-05
3.93207e-05
0.000939296
2.36151e-05
2.25604e-05
0.00110275
2.23835e-05
1.28481e-05
0.00107811
2.27544e-05
5.83131e-06
0.00106411
2.30599e-05
1.8592e-07
0.00106107
2.32512e-05
-5.47776e-06
0.0010611
2.32499e-05
-1.25511e-05
0.0010642
2.30424e-05
-2.23039e-05
0.00107823
2.27172e-05
-3.889e-05
0.00110278
2.24031e-05
0.000939498
2.3684e-05
2.4085e-05
0.000914687
1.65803e-05
1.71467e-05
0.00111667
1.68368e-05
1.14563e-05
0.00109231
1.62475e-05
5.72171e-06
0.00107778
1.62498e-05
3.76735e-07
0.00107465
1.64207e-05
-4.99749e-06
0.00107471
1.64131e-05
-1.0816e-05
0.00107794
1.62384e-05
-1.66059e-05
0.00109249
1.62293e-05
-2.35277e-05
0.00111663
1.68926e-05
0.000915456
1.65982e-05
1.48427e-05
0.000896828
1.15963e-05
1.44232e-05
0.00111758
1.39683e-05
9.51894e-06
0.00109859
1.28347e-05
4.71724e-06
0.00108439
1.26326e-05
5.82339e-07
0.00108097
1.28545e-05
-3.59398e-06
0.00108107
1.28476e-05
-8.51598e-06
0.00108466
1.26214e-05
-1.3589e-05
0.00109889
1.28269e-05
-1.41499e-05
0.00111767
1.40337e-05
0.000898352
1.15871e-05
9.86605e-06
0.000883369
8.59782e-06
1.31891e-05
0.00111102
1.25556e-05
8.60675e-06
0.0010998
1.10673e-05
4.3044e-06
0.00108667
1.09679e-05
8.26396e-07
0.00108279
1.12652e-05
-2.70088e-06
0.00108294
1.12796e-05
-7.16209e-06
0.00108711
1.09476e-05
-1.19662e-05
0.0011003
1.10423e-05
-8.82205e-06
0.00111136
1.26034e-05
0.000885989
8.56857e-06
7.9147e-06
0.000872628
6.4345e-06
1.22307e-05
0.0011025
1.13729e-05
7.92094e-06
0.00109874
9.42553e-06
4.20913e-06
0.00108695
9.55454e-06
1.12564e-06
0.00108271
9.85551e-06
-2.01987e-06
0.00108292
9.85072e-06
-5.92472e-06
0.00108759
9.54703e-06
-1.04921e-05
0.00109954
9.36637e-06
-6.43099e-06
0.00110327
1.13665e-05
0.00087673
6.41095e-06
7.53224e-06
0.000863517
4.78897e-06
1.16383e-05
0.00109443
1.04917e-05
7.35467e-06
0.0010972
7.98947e-06
4.22614e-06
0.00108659
8.37063e-06
1.50681e-06
0.00108207
8.54604e-06
-1.29897e-06
0.00108241
8.5055e-06
-4.67671e-06
0.0010875
8.35247e-06
-9.3065e-06
0.00109836
7.95339e-06
-5.58705e-06
0.0010958
1.04561e-05
0.000869555
4.77458e-06
7.71881e-06
0.000855341
3.545e-06
1.14442e-05
0.00108717
9.92099e-06
7.12662e-06
0.0010957
6.90593e-06
4.44104e-06
0.00108607
7.55966e-06
1.99517e-06
0.00108137
7.49398e-06
-5.85265e-07
0.00108184
7.48895e-06
-3.6287e-06
0.00108741
7.51015e-06
-8.4588e-06
0.0010973
6.90806e-06
-5.2129e-06
0.00108916
9.95094e-06
0.000863948
3.52042e-06
8.05175e-06
0.000847681
2.57896e-06
1.14858e-05
0.00108055
9.4694e-06
7.27285e-06
0.00109418
6.09611e-06
4.9022e-06
0.00108551
7.03149e-06
2.61539e-06
0.00108072
6.71522e-06
1.48918e-07
0.0010813
6.74121e-06
-2.71779e-06
0.00108735
7.02565e-06
-7.6568e-06
0.00109645
6.0537e-06
-4.81616e-06
0.00108317
9.58004e-06
0.000859682
2.55336e-06
8.39813e-06
0.000840363
1.74546e-06
1.17658e-05
0.00107417
9.10125e-06
7.75291e-06
0.00109258
5.41796e-06
5.60729e-06
0.00108491
6.65245e-06
3.42083e-06
0.00108007
6.12922e-06
1.00882e-06
0.00108085
6.1266e-06
-1.79067e-06
0.00108735
6.70993e-06
-6.93453e-06
0.00109595
5.33237e-06
-4.35274e-06
0.00107752
9.40154e-06
0.000856715
1.73754e-06
8.90644e-06
0.00083332
9.01041e-07
1.27149e-05
0.00106706
9.18684e-06
8.6325e-06
0.0010911
4.87207e-06
6.58722e-06
0.00108432
6.35824e-06
4.4809e-06
0.00107945
5.62025e-06
2.08292e-06
0.00108055
5.56423e-06
-7.44948e-07
0.00108759
6.40005e-06
-5.8761e-06
0.00109573
4.67918e-06
-3.6877e-06
0.00107241
9.05012e-06
0.000854951
1.21289e-06
9.52997e-06
0.000825875
5.30664e-07
1.34019e-05
0.00106
8.76542e-06
9.8301e-06
0.00108939
4.35739e-06
7.8878e-06
0.00108368
6.1215e-06
5.8673e-06
0.00107885
5.12704e-06
3.4613e-06
0.00108046
4.99439e-06
5.7665e-07
0.00108807
6.12021e-06
-4.31189e-06
0.00109577
4.03536e-06
-2.93128e-06
0.00106861
8.38396e-06
0.000854172
9.54823e-07
1.0525e-05
0.000817095
5.35663e-07
1.38916e-05
0.00105416
7.83429e-06
1.13337e-05
0.00108707
3.94109e-06
9.58358e-06
0.00108279
5.9726e-06
7.69355e-06
0.00107807
4.72386e-06
5.22375e-06
0.00108044
4.57316e-06
2.20107e-06
0.00108871
5.96123e-06
-2.65093e-06
0.00109612
3.52336e-06
-2.03491e-06
0.00106587
7.89086e-06
0.000854511
7.72951e-07
1.18928e-05
0.000806765
4.4613e-07
1.52688e-05
0.00104862
7.34648e-06
1.34277e-05
0.00108432
3.65962e-06
1.1742e-05
0.00108163
5.89449e-06
1.01696e-05
0.00107629
5.27701e-06
7.49874e-06
0.00108032
4.35868e-06
4.24966e-06
0.00108937
6.00754e-06
-7.64356e-07
0.00109686
3.13815e-06
-9.14017e-07
0.00106405
7.52705e-06
0.00085615
6.82889e-07
1.36762e-05
0.000794615
2.8668e-07
1.74606e-05
0.00104273
7.11084e-06
1.61774e-05
0.00108137
3.39718e-06
1.47637e-05
0.00108027
5.78315e-06
1.32682e-05
0.00107456
4.93779e-06
1.04326e-05
0.00108033
4.21133e-06
6.89413e-06
0.0010903
5.97196e-06
1.5807e-06
0.00109818
2.80465e-06
4.06221e-07
0.00106341
7.14559e-06
0.000859171
6.91964e-07
1.6016e-05
0.000780068
2.08767e-07
2.04527e-05
0.0010362
6.95698e-06
1.99273e-05
0.00107802
3.30835e-06
1.87838e-05
0.00107884
5.76602e-06
1.70712e-05
0.00107406
3.92398e-06
1.42143e-05
0.00108072
3.99783e-06
1.02106e-05
0.00109191
5.81417e-06
4.4672e-06
0.00110025
2.58617e-06
1.96984e-06
0.00106429
6.80503e-06
0.000863772
7.74424e-07
1.90743e-05
0.000762382
2.46779e-07
2.44796e-05
0.00102872
6.88268e-06
2.48082e-05
0.00107408
3.44933e-06
2.39233e-05
0.00107718
5.90371e-06
2.21803e-05
0.00107395
3.89026e-06
1.91006e-05
0.00108159
3.88226e-06
1.44631e-05
0.00109429
5.77537e-06
8.06701e-06
0.00110326
2.51058e-06
3.9507e-06
0.00106696
6.53301e-06
0.000870349
9.71313e-07
2.30141e-05
0.000740653
4.93168e-07
2.98656e-05
0.0010198
6.95404e-06
3.11429e-05
0.00106948
3.74288e-06
3.05744e-05
0.00107518
6.13355e-06
2.88372e-05
0.00107396
4.12097e-06
2.54241e-05
0.00108294
3.89891e-06
1.99831e-05
0.00109756
5.8345e-06
1.26108e-05
0.00110753
2.52533e-06
6.47823e-06
0.0010718
6.35041e-06
0.000879471
1.29525e-06
2.80172e-05
0.000713838
1.0586e-06
3.70307e-05
0.00100872
7.30175e-06
3.93782e-05
0.00106409
4.248e-06
3.91954e-05
0.00107276
6.51327e-06
3.7458e-05
0.00107406
4.53627e-06
3.36122e-05
0.00108486
4.08645e-06
2.71555e-05
0.00110193
6.00149e-06
1.83944e-05
0.00111353
2.67049e-06
9.71605e-06
0.00107936
6.29277e-06
0.00089189
1.78319e-06
3.42528e-05
0.000680714
2.13715e-06
4.64091e-05
0.000994513
8.05212e-06
5.00419e-05
0.00105768
5.08893e-06
5.0339e-05
0.00106983
7.1347e-06
4.8597e-05
0.00107428
5.19086e-06
4.42108e-05
0.00108748
4.48894e-06
3.64994e-05
0.00110765
6.35334e-06
2.58434e-05
0.00112182
3.01405e-06
1.38956e-05
0.00109043
6.41633e-06
0.000908602
2.50857e-06
4.18233e-05
0.000639945
3.95952e-06
5.85015e-05
0.00097585
9.40185e-06
6.3782e-05
0.0010499
6.43367e-06
6.46802e-05
0.00106631
8.1278e-06
6.29692e-05
0.00107457
6.2196e-06
5.79492e-05
0.00109095
5.21179e-06
4.86952e-05
0.00111505
6.96779e-06
3.55211e-05
0.00113307
3.63923e-06
1.93494e-05
0.00110599
6.82702e-06
0.00093096
3.57571e-06
5.07526e-05
0.000590155
6.81505e-06
7.38912e-05
0.000950768
1.17167e-05
8.13817e-05
0.00104011
8.50674e-06
8.30592e-05
0.00106202
9.6734e-06
8.14986e-05
0.00107484
7.79141e-06
7.58163e-05
0.00109537
6.41502e-06
6.47151e-05
0.00112452
7.97026e-06
4.82544e-05
0.00114811
4.67838e-06
2.65778e-05
0.00112741
7.65761e-06
0.000960848
5.13713e-06
6.08264e-05
0.000529915
1.10716e-05
9.28205e-05
0.000916805
1.53026e-05
0.000103683
0.00102709
1.16671e-05
0.000106503
0.0010566
1.20609e-05
0.000105355
0.0010748
1.01298e-05
9.91394e-05
0.0011007
8.31273e-06
8.59517e-05
0.00113641
9.55168e-06
6.53179e-05
0.00116795
6.31528e-06
3.6365e-05
0.00115662
9.0552e-06
0.00100096
7.414e-06
7.13398e-05
0.000458032
1.69504e-05
0.000115087
0.000870698
2.05149e-05
0.000131395
0.0010087
1.62686e-05
0.000136211
0.00104919
1.56664e-05
0.000136054
0.00107384
1.35473e-05
0.000129763
0.00110658
1.12167e-05
0.000114469
0.00115092
1.19896e-05
8.86453e-05
0.00119375
8.80342e-06
4.9905e-05
0.00119632
1.13249e-05
0.00105527
1.06927e-05
8.08492e-05
0.000374291
2.39763e-05
0.000139561
0.000808254
2.74992e-05
0.000164877
0.000981055
2.27941e-05
0.000173584
0.00103792
2.10436e-05
0.000175566
0.00107077
1.85269e-05
0.00017024
0.00111202
1.55456e-05
0.000153337
0.00116776
1.56547e-05
0.000121399
0.00122668
1.24834e-05
6.95383e-05
0.00125013
1.4893e-05
0.00113015
1.54551e-05
8.66436e-05
0.000280434
3.04174e-05
0.000163239
0.00072472
3.56604e-05
0.000203433
0.000937664
3.17116e-05
0.000220086
0.00101887
2.8959e-05
0.000226527
0.00106332
2.57201e-05
0.000224199
0.00111502
2.18184e-05
0.000207236
0.00118567
2.09846e-05
0.000168911
0.00126737
1.77754e-05
9.90775e-05
0.00132339
2.0176e-05
0.00123594
2.2327e-05
8.46848e-05
0.000184094
3.3205e-05
0.000180745
0.000616813
4.26492e-05
0.000244214
0.000869009
4.28558e-05
0.000276385
0.00098469
4.03698e-05
0.000291999
0.00104734
3.59172e-05
0.000296551
0.00111211
3.05375e-05
0.000283298
0.00120144
2.8325e-05
0.000240526
0.00131457
2.50368e-05
0.0001484
0.00142144
2.76819e-05
0.00139358
3.20306e-05
6.86668e-05
0.000110834
3.23751e-05
0.000185822
0.000489191
4.79858e-05
0.000282258
0.00076693
5.57597e-05
0.000341701
0.00092436
5.53659e-05
0.000375397
0.00101548
4.93151e-05
0.00039391
0.0010979
4.14305e-05
0.000392325
0.00120888
3.7116e-05
0.000351935
0.00136314
3.36871e-05
0.000233493
0.00155008
3.75316e-05
0.0016408
4.51679e-05
4.80453e-05
7.09616e-05
2.2572e-05
0.000173898
0.000360532
5.09777e-05
0.000304249
0.000637241
6.83319e-05
0.000406078
0.000829343
7.20186e-05
0.000476168
0.000955883
6.45421e-05
0.000523123
0.00106399
5.29262e-05
0.000549989
0.00119665
4.52974e-05
0.000524387
0.0014057
4.13151e-05
0.000422013
0.00167149
4.86231e-05
0.00208634
6.18967e-05
6.77029e-05
-1.407e-05
2.27425e-05
0.000179162
3.2982e-05
0.000239517
0.000317646
5.98228e-05
0.000497679
0.000454131
6.85542e-05
0.000710953
0.000575505
6.25183e-05
0.000867939
0.000678436
4.95965e-05
0.00100184
0.00077619
3.95838e-05
0.00113997
0.000807776
3.54899e-05
0.00141473
0.00080182
4.86818e-05
0.00171437
7.76496e-05
0.0029308
5.74666e-05
0.000957218
8.3585e-06
2.14255e-05
0.00105018
6.53217e-06
6.50029e-06
0.00102985
6.4443e-06
2.19666e-06
0.00101941
6.45494e-06
5.50459e-08
0.00101735
6.46885e-06
-2.09402e-06
0.00101736
6.46787e-06
-6.42212e-06
0.00101943
6.45205e-06
-2.14652e-05
0.00102996
6.44094e-06
-5.78741e-05
0.00105055
6.544e-06
0.000956855
8.3791e-06
4.11511e-05
0.000926456
1.32161e-05
2.29263e-05
0.00107812
1.26515e-05
1.25071e-05
0.00105069
1.23183e-05
5.74754e-06
0.00103674
1.24726e-05
1.71027e-07
0.00103363
1.25343e-05
-5.42904e-06
0.00103366
1.25321e-05
-1.22625e-05
0.00103683
1.2464e-05
-2.27096e-05
0.0010508
1.23138e-05
-4.05584e-05
0.0010781
1.2688e-05
0.000926731
1.32456e-05
2.50214e-05
0.000906593
1.14125e-05
1.65557e-05
0.0010923
1.11098e-05
1.08595e-05
0.00106209
1.05202e-05
5.5936e-06
0.00104764
1.0596e-05
3.69669e-07
0.0010446
1.06564e-05
-4.88715e-06
0.00104467
1.06533e-05
-1.02452e-05
0.00104782
1.0591e-05
-1.6025e-05
0.00106227
1.0523e-05
-2.44034e-05
0.00109222
1.11469e-05
0.000907499
1.14213e-05
1.45869e-05
0.0008945
9.092e-06
1.32879e-05
0.00109855
9.00264e-06
8.9256e-06
0.00107086
8.41688e-06
4.52718e-06
0.00105628
8.36899e-06
5.77563e-07
0.00105295
8.4456e-06
-3.41624e-06
0.00105305
8.44123e-06
-7.93514e-06
0.00105658
8.36484e-06
-1.24208e-05
0.00107115
8.42053e-06
-1.38335e-05
0.00109862
9.03217e-06
0.000896151
9.0958e-06
8.22229e-06
0.000887264
7.60054e-06
1.16961e-05
0.00109974
7.87821e-06
8.15389e-06
0.00107801
7.43622e-06
4.12224e-06
0.00106386
7.41175e-06
8.26985e-07
0.00105993
7.5599e-06
-2.51875e-06
0.0010601
7.56316e-06
-6.71415e-06
0.0010643
7.40469e-06
-1.04385e-05
0.00107847
7.43034e-06
-7.13267e-06
0.00110003
7.87784e-06
0.000889961
7.61987e-06
4.75963e-06
0.000882507
6.41672e-06
1.02719e-05
0.00109865
6.92769e-06
7.45415e-06
0.00108376
6.47757e-06
4.01992e-06
0.00107027
6.55532e-06
1.13378e-06
0.00106588
6.77482e-06
-1.82461e-06
0.00106611
6.77723e-06
-5.46902e-06
0.00107092
6.55009e-06
-8.53767e-06
0.00108444
6.45153e-06
-3.30179e-06
0.00109925
6.88957e-06
0.0008866
6.46188e-06
3.09644e-06
0.000878792
5.39007e-06
9.11299e-06
0.00109708
6.02252e-06
6.69314e-06
0.00108877
5.3789e-06
3.97563e-06
0.00107577
5.57064e-06
1.51802e-06
0.00107106
5.80211e-06
-1.04658e-06
0.00107137
5.79003e-06
-4.05284e-06
0.0010767
5.56742e-06
-6.81594e-06
0.00108978
5.35758e-06
-1.23734e-06
0.00109815
5.96856e-06
0.000884673
5.45327e-06
2.31851e-06
0.000875402
4.59458e-06
8.38219e-06
0.00109557
5.34545e-06
6.19748e-06
0.00109339
4.44504e-06
4.11223e-06
0.00108063
4.76236e-06
1.99269e-06
0.00107572
4.93485e-06
-2.52578e-07
0.00107616
4.92643e-06
-2.7406e-06
0.00108192
4.74921e-06
-5.39597e-06
0.00109488
4.43916e-06
1.71234e-08
0.00109737
5.29823e-06
0.000883491
4.70792e-06
1.95739e-06
0.000871997
4.00206e-06
8.02621e-06
0.00109404
4.90556e-06
6.0761e-06
0.00109764
3.77213e-06
4.50559e-06
0.00108498
4.22298e-06
2.5948e-06
0.00108002
4.30414e-06
5.37032e-07
0.00108063
4.30709e-06
-1.53644e-06
0.00108678
4.2135e-06
-4.14436e-06
0.00109978
3.73672e-06
9.73028e-07
0.00109695
4.85958e-06
0.000882791
4.21434e-06
1.87122e-06
0.000868316
3.52958e-06
7.95524e-06
0.00109239
4.643e-06
6.27182e-06
0.00110145
3.26426e-06
5.13745e-06
0.00108889
3.85618e-06
3.38533e-06
0.00108403
3.84585e-06
1.4289e-06
0.00108484
3.84095e-06
-3.3056e-07
0.00109136
3.86415e-06
-2.94344e-06
0.00110452
3.17756e-06
1.84966e-06
0.00109695
4.5872e-06
0.000882512
3.85215e-06
1.99152e-06
0.00086405
3.14733e-06
8.19978e-06
0.00109079
4.54715e-06
6.77794e-06
0.00110488
2.84319e-06
6.0258e-06
0.0010924
3.57559e-06
4.42816e-06
0.00108775
3.47298e-06
2.53727e-06
0.00108883
3.44616e-06
9.94651e-07
0.0010957
3.57669e-06
-1.6348e-06
0.00110913
2.68271e-06
2.60382e-06
0.00109736
4.38207e-06
0.000882722
3.59366e-06
2.57001e-06
0.000859055
2.92709e-06
8.67783e-06
0.00108897
4.45321e-06
7.61054e-06
0.00110783
2.44841e-06
7.24969e-06
0.00109552
3.34175e-06
5.79813e-06
0.00109116
3.14825e-06
3.92049e-06
0.00109259
3.08091e-06
2.53998e-06
0.00109986
3.31919e-06
-1.41886e-07
0.00111359
2.22545e-06
3.23112e-06
0.00109819
4.15176e-06
0.000883502
3.39309e-06
3.67597e-06
0.000853104
2.7817e-06
9.5322e-06
0.00108666
4.25835e-06
8.8578e-06
0.00111027
2.14566e-06
8.85706e-06
0.00109828
3.18138e-06
7.56966e-06
0.00109423
2.9117e-06
5.66729e-06
0.00109625
2.79001e-06
4.35392e-06
0.00110396
3.14834e-06
1.49341e-06
0.00111811
1.84749e-06
3.99133e-06
0.00109956
4.00082e-06
0.000885028
3.22475e-06
5.12837e-06
0.000845757
2.63671e-06
1.0901e-05
0.00108405
4.1581e-06
1.06231e-05
0.00111221
1.96973e-06
1.08088e-05
0.00110085
3.11699e-06
9.94907e-06
0.00109743
2.90916e-06
7.89781e-06
0.0011
2.63912e-06
6.53793e-06
0.00110821
3.09775e-06
3.29232e-06
0.00112289
1.57305e-06
4.93137e-06
0.0011015
3.93265e-06
0.000887542
3.08746e-06
7.03474e-06
0.000836443
2.53853e-06
1.29313e-05
0.0010811
4.14337e-06
1.31376e-05
0.00111353
1.84098e-06
1.36711e-05
0.00110303
3.03857e-06
1.27797e-05
0.00110034
2.9005e-06
1.07011e-05
0.00110375
2.51802e-06
9.16341e-06
0.00111261
3.08649e-06
5.47955e-06
0.00112801
1.35695e-06
6.03624e-06
0.00110418
3.8881e-06
0.00089126
2.99891e-06
9.52525e-06
0.000824578
2.52312e-06
1.57899e-05
0.00107758
4.18445e-06
1.65915e-05
0.00111422
1.79717e-06
1.75773e-05
0.0011048
2.9891e-06
1.63477e-05
0.00110282
2.64467e-06
1.42574e-05
0.00110743
2.38686e-06
1.2377e-05
0.00111723
3.05331e-06
8.17376e-06
0.00113357
1.20591e-06
7.36298e-06
0.00110793
3.84324e-06
0.00089643
2.95487e-06
1.27168e-05
0.000809465
2.61837e-06
1.95832e-05
0.00107328
4.29266e-06
2.11068e-05
0.00111423
1.89611e-06
2.24546e-05
0.00110628
3.0618e-06
2.11985e-05
0.00110534
2.61341e-06
1.8864e-05
0.00111128
2.34496e-06
1.64383e-05
0.00112233
3.07864e-06
1.1459e-05
0.00113988
1.16114e-06
9.02511e-06
0.00111304
3.84336e-06
0.000903462
2.95305e-06
1.67556e-05
0.000790327
2.85362e-06
2.4658e-05
0.0010678
4.51819e-06
2.69877e-05
0.00111347
2.15136e-06
2.86904e-05
0.00110743
3.25314e-06
2.75242e-05
0.00110785
2.75308e-06
2.48237e-05
0.00111544
2.41174e-06
2.16581e-05
0.00112812
3.1821e-06
1.56233e-05
0.00114721
1.20845e-06
1.11865e-05
0.00111992
3.88665e-06
0.0009129
3.03183e-06
2.17571e-05
0.000766293
3.3146e-06
3.13864e-05
0.00106052
4.93547e-06
3.46388e-05
0.00111184
2.60993e-06
3.67287e-05
0.00110825
3.59162e-06
3.5675e-05
0.00111037
3.04968e-06
3.2519e-05
0.00112005
2.61236e-06
2.83966e-05
0.00113485
3.37837e-06
2.09591e-05
0.00115594
1.36203e-06
1.3997e-05
0.00112916
3.99657e-06
0.000925435
3.23372e-06
2.78797e-05
0.000736428
4.10305e-06
4.01865e-05
0.00105059
5.65764e-06
4.4548e-05
0.0011092
3.35428e-06
4.70751e-05
0.0011087
4.14057e-06
4.61487e-05
0.00111292
3.54324e-06
4.24451e-05
0.00112524
2.98707e-06
3.71172e-05
0.0011428
3.71476e-06
2.78431e-05
0.00116654
1.66529e-06
1.76821e-05
0.00114151
4.21555e-06
0.000942007
3.60666e-06
3.5207e-05
0.000699771
5.3903e-06
5.14393e-05
0.00103693
6.81235e-06
5.72546e-05
0.00110531
4.48926e-06
6.03169e-05
0.00110875
4.99288e-06
5.95843e-05
0.00111554
4.31276e-06
5.52688e-05
0.00113114
3.60539e-06
4.84473e-05
0.00115231
4.25718e-06
3.67964e-05
0.00117963
2.179e-06
2.25583e-05
0.00115794
4.61524e-06
0.000963911
4.21831e-06
4.36872e-05
0.000655474
7.40622e-06
6.55731e-05
0.00101815
8.59492e-06
7.33928e-05
0.00109983
6.14835e-06
7.71613e-05
0.00110836
6.27741e-06
7.67784e-05
0.00111822
5.47399e-06
7.18718e-05
0.00113787
4.57024e-06
6.32669e-05
0.00116377
5.09409e-06
4.8581e-05
0.00119599
2.98585e-06
2.9094e-05
0.00117978
5.28049e-06
0.000992966
5.16487e-06
5.31179e-05
0.000603061
1.03475e-05
8.27596e-05
0.000992581
1.12127e-05
9.35882e-05
0.00109213
8.52006e-06
9.84312e-05
0.00110739
8.17093e-06
9.87193e-05
0.00112087
7.17533e-06
9.34231e-05
0.00114544
6.01499e-06
8.28269e-05
0.00117755
6.34506e-06
6.43307e-05
0.00121659
4.19983e-06
3.79873e-05
0.00120884
6.32226e-06
0.00103178
6.5716e-06
6.29869e-05
0.000542691
1.43145e-05
0.000102868
0.000958316
1.48841e-05
0.000118367
0.00108109
1.18005e-05
0.00012504
0.00110548
1.08855e-05
0.000126624
0.00112321
9.60474e-06
0.000121499
0.00115365
8.104e-06
0.000108957
0.00119391
8.15483e-06
8.58104e-05
0.00124256
5.95447e-06
5.03964e-05
0.00124768
7.87943e-06
0.00108426
8.607e-06
7.2413e-05
0.000475164
1.90731e-05
0.000125045
0.000913462
1.9707e-05
0.000147892
0.00106482
1.61996e-05
0.000157913
0.00110182
1.46623e-05
0.000161969
0.00112467
1.29814e-05
0.000158217
0.00116192
1.10133e-05
0.000144377
0.00121272
1.06633e-05
0.000115894
0.00127513
8.38223e-06
6.83958e-05
0.00129994
1.0115e-05
0.00115664
1.14527e-05
8.0033e-05
0.000401822
2.37111e-05
0.000147585
0.000856107
2.54501e-05
0.000181713
0.0010405
2.18856e-05
0.000197855
0.00109487
1.97437e-05
0.000206493