/*--------------------------------*- C++ -*----------------------------------*\
| =========                 |                                                 |
| \\      /  F ield         | OpenFOAM: The Open Source CFD Toolbox           |
|  \\    /   O peration     | Version:  4.1                                   |
|   \\  /    A nd           | Web:      www.OpenFOAM.org                      |
|    \\/     M anipulation  |                                                 |
\*---------------------------------------------------------------------------*/
FoamFile
{
    version     2.0;
    format      ascii;
    class       volVectorField;
    location    "500";
    object      U;
}
// * * * * * * * * * * * * * * * * * * * * * * * * * * * * * * * * * * * * * //

dimensions      [0 1 -1 0 0 0 0];

internalField   nonuniform List<vector> 
12000
(
(0.0919746 -0.00968504 0.00967993)
(0.0965724 -0.0018179 0.0106701)
(0.0959818 -0.00135923 0.0110757)
(0.0955926 -0.000561152 0.0110952)
(0.095496 -0.000151457 0.011125)
(0.0954962 0.000134613 0.0111251)
(0.095593 0.000545601 0.0110956)
(0.0959823 0.001345 0.0110772)
(0.0965736 0.00180368 0.0106708)
(0.0919772 0.00969613 0.0096827)
(0.0861839 -0.00379915 0.00378724)
(0.0951113 -0.00254383 0.0052979)
(0.0937114 -0.00197341 0.00569838)
(0.0926389 -0.000886452 0.0056624)
(0.0923037 -0.000278714 0.00569515)
(0.0923051 0.000235811 0.00569488)
(0.0926428 0.000845758 0.00566148)
(0.0937165 0.00193295 0.00569819)
(0.095116 0.0024989 0.00531052)
(0.0861917 0.00380424 0.00380285)
(0.0822259 0.000784282 -0.000804826)
(0.0930911 -0.00256122 0.000270428)
(0.0918669 -0.0016517 0.000488348)
(0.0906402 -0.000795939 0.000472216)
(0.0901635 -0.000300216 0.000506411)
(0.0901675 0.000223961 0.000505933)
(0.0906505 0.000724082 0.0004697)
(0.0918794 0.00158467 0.000484886)
(0.0931015 0.00250273 0.000280575)
(0.0822766 -0.000800635 -0.000796225)
(0.0794883 0.00271693 -0.0027476)
(0.0906703 -0.00250351 -0.00245372)
(0.0900737 -0.00117413 -0.00239865)
(0.0890581 -0.00066936 -0.00232445)
(0.0885549 -0.000301314 -0.00227868)
(0.0885622 0.000184019 -0.00227933)
(0.0890799 0.000560444 -0.00233058)
(0.0901005 0.00107525 -0.00241058)
(0.0906937 0.00242322 -0.00244005)
(0.0795965 -0.00273963 -0.00272362)
(0.0780689 0.00323469 -0.00327815)
(0.0889358 -0.0024176 -0.0036273)
(0.0890126 -0.000786146 -0.003706)
(0.088227 -0.000627577 -0.00352261)
(0.0877171 -0.000313714 -0.00346217)
(0.0877304 0.000143581 -0.00346651)
(0.0882652 0.000472168 -0.00352898)
(0.0890627 0.000645796 -0.0037226)
(0.0889783 0.00231253 -0.00361371)
(0.0782534 -0.00328117 -0.00325315)
(0.0772941 0.00313784 -0.0031973)
(0.0878303 -0.00229536 -0.00393589)
(0.0885243 -0.000489442 -0.00419517)
(0.0878705 -0.000634779 -0.00392409)
(0.0873402 -0.000325752 -0.00386138)
(0.0873618 8.79817e-05 -0.00386363)
(0.0879301 0.000418795 -0.00392736)
(0.0886056 0.000296568 -0.00419849)
(0.0878993 0.00215897 -0.00392204)
(0.0775853 -0.00322623 -0.00318525)
(0.0766098 0.0028109 -0.00289032)
(0.0869883 -0.00216069 -0.00383357)
(0.0882432 -0.000271492 -0.00426991)
(0.0876514 -0.000661693 -0.00393646)
(0.0871137 -0.000332546 -0.00388564)
(0.0871425 8.55487e-06 -0.00387987)
(0.0877435 0.000365594 -0.00393497)
(0.088369 9.87712e-06 -0.00427362)
(0.087089 0.00197991 -0.00382631)
(0.0770477 -0.00294909 -0.00289064)
(0.0758532 0.00242943 -0.0025352)
(0.0862371 -0.00203261 -0.00358178)
(0.0879889 -0.000131097 -0.00415722)
(0.0874207 -0.000707488 -0.00377661)
(0.0869012 -0.000344414 -0.00373894)
(0.0869402 -9.21463e-05 -0.00374314)
(0.0875512 0.000310793 -0.00376728)
(0.0881822 -0.000223474 -0.00417523)
(0.0863854 0.00178703 -0.00358456)
(0.0764874 -0.00262193 -0.00253986)
(0.0750522 0.00206208 -0.00220301)
(0.0855636 -0.00191897 -0.00328654)
(0.0877482 -6.19407e-05 -0.0039773)
(0.0871736 -0.000777399 -0.00355517)
(0.0866955 -0.00037154 -0.00354118)
(0.0867554 -0.000212918 -0.00355788)
(0.0873554 0.000254072 -0.0035597)
(0.0880308 -0.000409717 -0.0039895)
(0.0857844 0.00158284 -0.00328944)
(0.0759458 -0.00231844 -0.00220621)
(0.074233 0.00172337 -0.00191046)
(0.0849726 -0.00182212 -0.00299344)
(0.0875285 -5.09906e-05 -0.0037705)
(0.0869268 -0.00087362 -0.00332304)
(0.0865134 -0.000419798 -0.0033433)
(0.0865967 -0.000352704 -0.0033529)
(0.0871839 0.00018243 -0.00333802)
(0.0879165 -0.00057169 -0.00377727)
(0.0852743 0.00136926 -0.00298638)
(0.0754626 -0.00205589 -0.00190573)
(0.0733691 0.00140653 -0.0016532)
(0.0844437 -0.00175279 -0.00273001)
(0.087307 -8.51722e-05 -0.00355399)
(0.0866821 -0.000996248 -0.00310082)
(0.0863596 -0.000497176 -0.00314197)
(0.0864704 -0.000515609 -0.00314466)
(0.0870346 8.35311e-05 -0.00309847)
(0.0878432 -0.00072247 -0.00355819)
(0.0849127 0.00115988 -0.00267662)
(0.0750491 -0.00183963 -0.00164292)
(0.0724389 0.00111329 -0.00143857)
(0.0840746 -0.00174607 -0.00243026)
(0.0870762 -0.000190459 -0.00334666)
(0.0864363 -0.00115113 -0.00289241)
(0.0862281 -0.000612077 -0.00294042)
(0.0863697 -0.000713194 -0.0029341)
(0.0869017 -5.35221e-05 -0.00287429)
(0.0878097 -0.000867867 -0.00333674)
(0.0846017 0.000944154 -0.00239978)
(0.0747094 -0.00166744 -0.00141564)
(0.0714287 0.000835941 -0.00126555)
(0.0836167 -0.00179129 -0.00217123)
(0.0868311 -0.000381456 -0.00315786)
(0.0861895 -0.00135555 -0.0027149)
(0.0861213 -0.000784591 -0.00276755)
(0.086283 -0.000953128 -0.00276761)
(0.0867979 -0.000232713 -0.0026941)
(0.0878108 -0.00102704 -0.00314705)
(0.0843466 0.000717079 -0.00218017)
(0.0744506 -0.00152982 -0.00121524)
(0.0703142 0.000552474 -0.00111648)
(0.0831228 -0.00188833 -0.00196715)
(0.0865855 -0.000640269 -0.00295795)
(0.0859404 -0.00164679 -0.00256223)
(0.0860003 -0.00103775 -0.00265658)
(0.0862304 -0.00123487 -0.00265862)
(0.086733 -0.00046346 -0.00255197)
(0.0878655 -0.00121806 -0.00297779)
(0.0841965 0.000473237 -0.00199293)
(0.0742825 -0.00142547 -0.00103919)
(0.0690413 0.000253223 -0.000985727)
(0.0826049 -0.00204483 -0.00179109)
(0.0862855 -0.000962009 -0.00275697)
(0.0856804 -0.00198923 -0.00240158)
(0.086165 -0.00137475 -0.00242624)
(0.0862214 -0.00162031 -0.00252124)
(0.0867528 -0.000782907 -0.00238851)
(0.0879841 -0.00146962 -0.00280564)
(0.0841554 0.000193615 -0.0018236)
(0.0742289 -0.00135688 -0.000886114)
(0.0675433 -7.40291e-05 -0.00086974)
(0.0820398 -0.00229054 -0.00162938)
(0.0859082 -0.00137873 -0.00257086)
(0.0853889 -0.00239908 -0.00224824)
(0.0860271 -0.00182555 -0.00222842)
(0.0862439 -0.00213096 -0.00234783)
(0.0868039 -0.00122099 -0.00221881)
(0.088167 -0.00180498 -0.00263982)
(0.0842445 -0.000133359 -0.00167466)
(0.0743212 -0.00132236 -0.000750337)
(0.0657365 -0.000444981 -0.000763734)
(0.0813874 -0.00265604 -0.00147649)
(0.0854561 -0.00193854 -0.00239187)
(0.0850695 -0.00296322 -0.0021096)
(0.0858655 -0.00242306 -0.00206895)
(0.0862966 -0.00275291 -0.00218266)
(0.0869118 -0.00178843 -0.00206437)
(0.0884546 -0.00223663 -0.00247797)
(0.0845017 -0.000519882 -0.0015427)
(0.0745932 -0.00132434 -0.000625565)
(0.0635127 -0.00087434 -0.000659356)
(0.080587 -0.00316778 -0.001326)
(0.0848873 -0.00267996 -0.00220647)
(0.0846953 -0.00371689 -0.00197754)
(0.0856599 -0.0032141 -0.00192411)
(0.0863648 -0.0035367 -0.00203214)
(0.0870946 -0.00251669 -0.00191999)
(0.0888592 -0.00279439 -0.00231943)
(0.0849576 -0.000990637 -0.00142043)
(0.0750852 -0.00137026 -0.000505126)
(0.0607304 -0.00137567 -0.000543976)
(0.0795483 -0.00385888 -0.00116948)
(0.0841652 -0.00365098 -0.00201023)
(0.0842429 -0.00470386 -0.00184486)
(0.0854122 -0.00425122 -0.00177874)
(0.0864541 -0.00454098 -0.00188434)
(0.087365 -0.00345689 -0.00178091)
(0.0894057 -0.00352118 -0.00215948)
(0.0856629 -0.00157627 -0.00129999)
(0.0758505 -0.00147145 -0.00038357)
(0.0572143 -0.0019567 -0.000402298)
(0.0781444 -0.0047672 -0.000989417)
(0.0832462 -0.00491473 -0.00179472)
(0.0836882 -0.00598499 -0.00170091)
(0.0851082 -0.00559879 -0.00162383)
(0.0865601 -0.00583626 -0.00172834)
(0.0877426 -0.00467687 -0.00163931)
(0.090113 -0.00447237 -0.00199078)
(0.0866698 -0.0023178 -0.00117535)
(0.0769605 -0.00164213 -0.000253247)
(0.0527571 -0.00261236 -0.000215156)
(0.0761678 -0.00592554 -0.000766966)
(0.082065 -0.00654511 -0.00154719)
(0.0829873 -0.00763918 -0.00153469)
(0.084712 -0.00733741 -0.0014509)
(0.0866645 -0.00750843 -0.00155237)
(0.0882434 -0.00626406 -0.00148209)
(0.0910225 -0.0057276 -0.00180356)
(0.0880514 -0.00327244 -0.00103905)
(0.0785087 -0.0019041 -0.00010426)
(0.0471291 -0.00331274 4.23079e-05)
(0.0733277 -0.00734546 -0.000478272)
(0.0805151 -0.00861338 -0.00124968)
(0.0820816 -0.0097617 -0.00132985)
(0.0841762 -0.0095655 -0.00124749)
(0.0867277 -0.00966744 -0.00134359)
(0.0888651 -0.00833536 -0.00129628)
(0.0921715 -0.00739777 -0.0015869)
(0.0898981 -0.00452156 -0.000876306)
(0.0806257 -0.00228949 7.8177e-05)
(0.0401205 -0.00397896 0.000384221)
(0.0692381 -0.00898958 -8.88276e-05)
(0.0783976 -0.0111668 -0.000872595)
(0.0808678 -0.0124568 -0.00106384)
(0.083416 -0.0124019 -0.000995195)
(0.0866784 -0.0124565 -0.00108133)
(0.0895871 -0.0110505 -0.00106126)
(0.0936085 -0.009642 -0.00132337)
(0.0923292 -0.00618689 -0.000670673)
(0.0834902 -0.00285201 0.000311735)
(0.0316225 -0.00445336 0.000796404)
(0.0633935 -0.0107122 0.000415841)
(0.0753945 -0.0141656 -0.000374801)
(0.0791817 -0.0158214 -0.000697677)
(0.0823028 -0.0159916 -0.000669282)
(0.0863868 -0.0160615 -0.000743871)
(0.0903375 -0.0146303 -0.000751305)
(0.0953635 -0.0127012 -0.000988061)
(0.0954883 -0.00846103 -0.000399199)
(0.0873772 -0.00367027 0.00062402)
(0.0217581 -0.00446392 0.00119915)
(0.0552742 -0.0121863 0.00100082)
(0.0709001 -0.0173859 0.00026801)
(0.0766647 -0.0198863 -0.000179575)
(0.0806087 -0.0205029 -0.000232071)
(0.0856519 -0.0207219 -0.000299115)
(0.0909771 -0.019381 -0.000331168)
(0.097447 -0.0169421 -0.000546337)
(0.0995949 -0.0116656 -2.49368e-05)
(0.0926823 -0.00490019 0.00105156)
(0.0110548 -0.00356267 0.00134348)
(0.0445427 -0.0127985 0.00150096)
(0.0640889 -0.0202778 0.00106014)
(0.0726784 -0.024497 0.000575763)
(0.0779478 -0.0261094 0.000387593)
(0.0841305 -0.0267675 0.0002904)
(0.0912015 -0.0257469 0.000239761)
(0.0997513 -0.0229395 4.86267e-05)
(0.104904 -0.0163434 0.000507588)
(0.100201 -0.00677156 0.00164133)
(0.00075053 -0.000926444 0.00125934)
(0.0311108 -0.0116076 0.00163666)
(0.0536268 -0.0219016 0.0018402)
(0.0659083 -0.0290964 0.00163216)
(0.0735172 -0.0328024 0.00133051)
(0.0813032 -0.0345574 0.00111549)
(0.0905765 -0.0343254 0.00101493)
(0.102098 -0.031611 0.000852452)
(0.111805 -0.0235832 0.00127599)
(0.111004 -0.00999682 0.00250533)
(-0.00356306 0.00215693 0.00187614)
(0.0171431 -0.00764595 0.00213547)
(0.0390476 -0.0208915 0.00279766)
(0.0547952 -0.0326319 0.00297141)
(0.0658215 -0.0402941 0.00267326)
(0.076019 -0.04454 0.00228239)
(0.0879569 -0.0460343 0.00206931)
(0.103507 -0.0443879 0.00191522)
(0.11999 -0.0354217 0.0023513)
(0.128949 -0.0151975 0.00370776)
(-0.00663659 6.58164e-05 0.000631097)
(-0.00101413 -0.00492892 0.00216131)
(0.01783 -0.0167439 0.00421394)
(0.0366414 -0.0321202 0.00517535)
(0.0524204 -0.0457443 0.00491787)
(0.0667872 -0.0556398 0.00416302)
(0.0825212 -0.0616481 0.00358265)
(0.103642 -0.063542 0.00331452)
(0.129617 -0.0564618 0.00384252)
(0.156422 -0.0284426 0.00553866)
(-0.0127606 -0.00435064 -0.00200158)
(-0.0152996 -0.0141029 -0.00227421)
(-0.00516283 -0.023136 0.000567098)
(0.0104819 -0.0336406 0.00434498)
(0.0278565 -0.0479821 0.00655701)
(0.0465523 -0.0639497 0.00683719)
(0.0665029 -0.0795869 0.00609196)
(0.0958925 -0.0896613 0.00533738)
(0.129204 -0.101242 0.00553117)
(0.21741 -0.046972 0.00810198)
(0.096569 -0.0106748 0.00181015)
(0.101321 -0.00138863 0.00138271)
(0.100912 -0.00123295 0.00148885)
(0.10064 -0.000466199 0.00146361)
(0.100597 -0.00011579 0.00147665)
(0.100597 0.000103666 0.00147654)
(0.10064 0.000455507 0.00146322)
(0.100914 0.00122462 0.0014877)
(0.101328 0.00138166 0.00138428)
(0.0965701 0.0107652 0.00181945)
(0.0950995 -0.00530864 0.00252504)
(0.108603 -0.00240341 0.00238609)
(0.106226 -0.00201281 0.002493)
(0.105044 -0.000786867 0.00243877)
(0.104813 -0.000244741 0.00247174)
(0.104815 0.000208335 0.00247175)
(0.105049 0.000753594 0.00243688)
(0.106239 0.00197733 0.00248748)
(0.108628 0.00234569 0.00238237)
(0.0950798 0.00536364 0.00253198)
(0.0930644 -0.00028839 0.00253032)
(0.112085 -0.00287716 0.00284813)
(0.109281 -0.00172402 0.00286654)
(0.107668 -0.000664393 0.0027952)
(0.107326 -0.000281635 0.00283669)
(0.107329 0.000206909 0.00283579)
(0.10768 0.000593974 0.00279414)
(0.109294 0.00165647 0.00286379)
(0.112081 0.00281862 0.0028514)
(0.0931058 0.000296397 0.0025307)
(0.0906199 0.00242672 0.00245865)
(0.112379 -0.00325542 0.0032142)
(0.110077 -0.00121798 0.00313523)
(0.108529 -0.000527925 0.00308175)
(0.108177 -0.000301998 0.00313066)
(0.108186 0.000185687 0.00313021)
(0.10855 0.000419815 0.00308126)
(0.110101 0.00111853 0.00313552)
(0.11238 0.0031789 0.00321934)
(0.0907255 -0.0024404 0.00245254)
(0.0888513 0.00358828 0.00235512)
(0.111502 -0.00350937 0.00345317)
(0.11 -0.000786979 0.0032846)
(0.108633 -0.00052272 0.0032833)
(0.108276 -0.000333546 0.00333698)
(0.10829 0.000167756 0.00333983)
(0.108668 0.000369681 0.00328168)
(0.110038 0.000644463 0.00328394)
(0.11152 0.00341216 0.00346131)
(0.0890523 -0.0036729 0.00234302)
(0.0876974 0.0038818 0.00221003)
(0.110619 -0.00360908 0.00353389)
(0.109888 -0.000439982 0.00328645)
(0.108661 -0.000586838 0.00334374)
(0.108268 -0.000354502 0.00339102)
(0.108283 0.00012861 0.00339021)
(0.108716 0.000378018 0.00334344)
(0.10995 0.000241492 0.00327964)
(0.110668 0.0034819 0.00354098)
(0.0880266 -0.00404927 0.00219842)
(0.0867882 0.00376041 0.00204529)
(0.109831 -0.00362639 0.00352687)
(0.109791 -0.000175443 0.0032081)
(0.108678 -0.000672753 0.00332049)
(0.108239 -0.000356709 0.00334347)
(0.108266 5.35048e-05 0.00333702)
(0.108753 0.000396931 0.00331651)
(0.10989 -9.44904e-05 0.00320373)
(0.109938 0.00346126 0.00353569)
(0.0872817 -0.00399297 0.00203987)
(0.0859447 0.0034837 0.00187742)
(0.109081 -0.00361158 0.00348005)
(0.109661 2.04915e-06 0.00310371)
(0.10865 -0.000777622 0.00326654)
(0.108183 -0.00034945 0.0032501)
(0.108225 -5.33727e-05 0.00325047)
(0.10876 0.000420945 0.0032565)
(0.109797 -0.000356496 0.00310394)
(0.109253 0.00339561 0.00349906)
(0.0866586 -0.00376655 0.00187912)
(0.0851472 0.00315571 0.00171137)
(0.108375 -0.00356712 0.00339301)
(0.109502 0.000100778 0.00298977)
(0.108588 -0.00090291 0.00319525)
(0.108111 -0.000344874 0.00314254)
(0.108162 -0.000183692 0.0031483)
(0.108747 0.000438684 0.00319426)
(0.109688 -0.000559449 0.00298191)
(0.108604 0.00327408 0.00341788)
(0.0861573 -0.00348371 0.00172144)
(0.0843926 0.00282019 0.00154606)
(0.107732 -0.00350527 0.00327466)
(0.109335 0.000130624 0.0028608)
(0.108521 -0.00104472 0.0031078)
(0.10804 -0.000355245 0.00302956)
(0.108106 -0.000336277 0.00303106)
(0.108732 0.000437198 0.00311709)
(0.109614 -0.000726413 0.00284713)
(0.108042 0.00313067 0.00332411)
(0.0857722 -0.00319555 0.00156959)
(0.0836489 0.00250269 0.00138646)
(0.107109 -0.00349927 0.00319097)
(0.109187 8.97358e-05 0.00271917)
(0.10846 -0.00120601 0.00300661)
(0.107973 -0.000390634 0.00290291)
(0.108065 -0.000515792 0.00289775)
(0.108739 0.00040541 0.00301364)
(0.109576 -0.000865783 0.00270976)
(0.10746 0.00290593 0.00316253)
(0.0855661 -0.00290832 0.00143677)
(0.083007 0.00212922 0.00125882)
(0.106298 -0.00339258 0.00298535)
(0.109027 -2.1594e-05 0.00258875)
(0.108402 -0.0013825 0.00289854)
(0.107914 -0.000459987 0.00276056)
(0.108045 -0.000727221 0.00274538)
(0.108779 0.0003351 0.00290247)
(0.109565 -0.00101067 0.00257094)
(0.107017 0.00262957 0.00296288)
(0.0854411 -0.00266304 0.00131828)
(0.0821871 0.00177457 0.00114121)
(0.105685 -0.00327186 0.00274209)
(0.108838 -0.000171779 0.00248468)
(0.108332 -0.00158542 0.00279746)
(0.107853 -0.00057537 0.00261967)
(0.108048 -0.000977678 0.00261061)
(0.108839 0.000222599 0.00280258)
(0.109591 -0.00117432 0.00244324)
(0.10671 0.00236996 0.00279834)
(0.0854034 -0.00248353 0.0012135)
(0.0812269 0.00145126 0.00102648)
(0.105143 -0.00325566 0.00256451)
(0.108575 -0.000394425 0.00237138)
(0.108228 -0.00182629 0.00269836)
(0.107777 -0.000757616 0.00263796)
(0.108043 -0.00127693 0.00250392)
(0.108909 4.72016e-05 0.00273118)
(0.109643 -0.00136146 0.00232422)
(0.106474 0.00209944 0.00264976)
(0.085504 -0.00234837 0.0011243)
(0.080115 0.00112821 0.000919909)
(0.104577 -0.00332451 0.00242211)
(0.108287 -0.000697126 0.0022498)
(0.108092 -0.00211338 0.00259514)
(0.107478 -0.00104441 0.00243949)
(0.108023 -0.00162031 0.00240545)
(0.108969 -0.000211319 0.00263604)
(0.109735 -0.00158518 0.00220682)
(0.106341 0.00179253 0.00249908)
(0.0857409 -0.00224297 0.00104894)
(0.0787974 0.000782782 0.000828847)
(0.103962 -0.00346786 0.00228648)
(0.107982 -0.00108936 0.00215789)
(0.10796 -0.00251282 0.00251399)
(0.10742 -0.00140857 0.00220556)
(0.108044 -0.00203878 0.00230275)
(0.109096 -0.00055417 0.00252851)
(0.109908 -0.00186691 0.00211093)
(0.106351 0.00145192 0.00236623)
(0.0861107 -0.00216822 0.000987772)
(0.0772057 0.000399986 0.000755488)
(0.10327 -0.00370042 0.00216187)
(0.107618 -0.00160137 0.00209602)
(0.107808 -0.00301619 0.00244987)
(0.107398 -0.00190416 0.00213217)
(0.108106 -0.00256955 0.00220801)
(0.109296 -0.00101214 0.00244183)
(0.110156 -0.00222394 0.00203523)
(0.10652 0.00105477 0.00224783)
(0.08666 -0.00212678 0.000944272)
(0.0752594 -3.20428e-05 0.000708027)
(0.102463 -0.00404973 0.00205649)
(0.107192 -0.00226493 0.00204958)
(0.107626 -0.00365754 0.00239555)
(0.107394 -0.0025663 0.00209348)
(0.108217 -0.0032397 0.00213166)
(0.109574 -0.00161891 0.00236866)
(0.110512 -0.00268539 0.00197141)
(0.106889 0.000580958 0.00214651)
(0.0874324 -0.00212333 0.000923925)
(0.0728581 -0.000523126 0.000699721)
(0.101486 -0.00455235 0.00198596)
(0.106697 -0.00312129 0.00202537)
(0.107408 -0.00448323 0.00235985)
(0.1074 -0.0034394 0.00207747)
(0.108379 -0.00409122 0.00207827)
(0.109951 -0.0024155 0.00231098)
(0.111013 -0.00328583 0.00192684)
(0.107495 4.4578e-06 0.0020661)
(0.0884948 -0.00216403 0.000932615)
(0.0698996 -0.00108863 0.000750085)
(0.100248 -0.00523518 0.0019603)
(0.106114 -0.0042227 0.0020372)
(0.107142 -0.00554798 0.00235295)
(0.107415 -0.00457916 0.00208985)
(0.108602 -0.00517891 0.0020526)
(0.110451 -0.00345661 0.00227915)
(0.111717 -0.00407458 0.00191035)
(0.108411 -0.000707262 0.00201488)
(0.089929 -0.00226167 0.000976948)
(0.0662472 -0.0017313 0.000881452)
(0.0986491 -0.00612789 0.00200046)
(0.105416 -0.00563151 0.00210166)
(0.106822 -0.0069193 0.00238881)
(0.107442 -0.00605466 0.00214724)
(0.108904 -0.00657575 0.00206695)
(0.1111 -0.00481452 0.00228025)
(0.112679 -0.00511591 0.00192961)
(0.109721 -0.00159996 0.0020061)
(0.0918537 -0.00243267 0.0010687)
(0.0617627 -0.00243929 0.00112301)
(0.0965276 -0.00727211 0.00214781)
(0.10456 -0.00741675 0.00223792)
(0.106435 -0.00868061 0.0024847)
(0.107473 -0.00795307 0.00226711)
(0.109296 -0.00837905 0.00213986)
(0.111936 -0.00658825 0.00232856)
(0.113979 -0.00650388 0.00200126)
(0.111543 -0.00274161 0.00205583)
(0.0944277 -0.00270542 0.00122541)
(0.0563253 -0.00319412 0.00150024)
(0.0936501 -0.00865927 0.00242655)
(0.103461 -0.00964392 0.00248689)
(0.105963 -0.0109308 0.00266983)
(0.107493 -0.0103808 0.00247105)
(0.109787 -0.0107163 0.00229448)
(0.112998 -0.00891548 0.00244586)
(0.115703 -0.00837611 0.00214632)
(0.114034 -0.00424243 0.00218128)
(0.0978776 -0.00312286 0.00147308)
(0.0497669 -0.00391926 0.0020142)
(0.0897608 -0.010244 0.00286173)
(0.101961 -0.0123409 0.0028763)
(0.105345 -0.013776 0.00297981)
(0.107457 -0.0134701 0.00279038)
(0.110359 -0.0137595 0.00256654)
(0.114318 -0.0119933 0.00266502)
(0.117966 -0.0109447 0.00239387)
(0.117433 -0.00626423 0.00242277)
(0.102531 -0.00375019 0.00184767)
(0.0419866 -0.00446278 0.00259861)
(0.0844545 -0.011901 0.00344923)
(0.0997849 -0.0154617 0.00344811)
(0.104473 -0.0173227 0.0034716)
(0.107294 -0.0173883 0.00327585)
(0.110957 -0.0177385 0.00300037)
(0.115903 -0.0161073 0.00302898)
(0.12089 -0.0145364 0.00278401)
(0.122054 -0.00909548 0.00283544)
(0.108879 -0.00472994 0.00240845)
(0.0329977 -0.0045538 0.00305397)
(0.0772792 -0.013328 0.00410178)
(0.0964503 -0.0187998 0.00423114)
(0.103094 -0.021632 0.00422372)
(0.106835 -0.0223528 0.00400207)
(0.111435 -0.0229697 0.0036581)
(0.117682 -0.0216773 0.00359504)
(0.124576 -0.0196797 0.00337148)
(0.128313 -0.0132314 0.00346852)
(0.11785 -0.00625887 0.00323389)
(0.0230948 -0.00381647 0.0030765)
(0.0676542 -0.0140021 0.00456275)
(0.0911309 -0.0218951 0.00520869)
(0.100716 -0.0266116 0.00534866)
(0.105833 -0.028578 0.005067)
(0.111572 -0.0298619 0.00461092)
(0.119503 -0.029297 0.00442554)
(0.129088 -0.0272595 0.00422219)
(0.136868 -0.0196466 0.00441167)
(0.130658 -0.0090294 0.00444518)
(0.0139586 -0.00185045 0.00309017)
(0.0558689 -0.0132186 0.00499209)
(0.0829561 -0.0240932 0.00640317)
(0.0964386 -0.0319615 0.00691012)
(0.103723 -0.0362483 0.00657627)
(0.110858 -0.0389348 0.00591847)
(0.12078 -0.0398031 0.00554445)
(0.134019 -0.0386642 0.00534917)
(0.148007 -0.0303086 0.00574492)
(0.151538 -0.0134388 0.00618302)
(0.00797876 -0.000450014 0.00310399)
(0.0422868 -0.0109425 0.00566977)
(0.0710091 -0.0241981 0.0078788)
(0.0890091 -0.0363281 0.00894983)
(0.0997998 -0.044832 0.00861134)
(0.108998 -0.0506195 0.00763952)
(0.121146 -0.0542649 0.00695968)
(0.139157 -0.055928 0.00672092)
(0.162243 -0.0491828 0.00757295)
(0.18303 -0.0255066 0.0086708)
(0.00505279 -0.00274004 0.000153364)
(0.0295305 -0.0111764 0.00447056)
(0.0563966 -0.0245017 0.00787413)
(0.0770857 -0.0390115 0.00977924)
(0.0916439 -0.0521321 0.00991324)
(0.103877 -0.0633785 0.00889809)
(0.117565 -0.0735302 0.007884)
(0.141717 -0.0810151 0.00751346)
(0.170938 -0.0899367 0.00888631)
(0.249583 -0.0418515 0.0118575)
(0.0959791 -0.0110805 0.0013513)
(0.100912 -0.00149431 0.00122706)
(0.100646 -0.00117833 0.001173)
(0.100406 -0.000462566 0.00118475)
(0.100365 -0.000114519 0.00119032)
(0.100365 0.000104031 0.00119019)
(0.100407 0.00045364 0.00118431)
(0.100649 0.00117169 0.00117221)
(0.100917 0.0014912 0.00122772)
(0.0959788 0.0111995 0.00135492)
(0.0937009 -0.00570906 0.00195309)
(0.106228 -0.00250993 0.00199431)
(0.10368 -0.00191725 0.0018994)
(0.102526 -0.000783007 0.00194737)
(0.102288 -0.000237202 0.0019575)
(0.10229 0.00020437 0.00195727)
(0.102532 0.000754029 0.00194607)
(0.103695 0.00188324 0.00189692)
(0.106265 0.002444 0.00199497)
(0.0936755 0.00576361 0.00195577)
(0.0918409 -0.000506075 0.00161714)
(0.109281 -0.00289549 0.0016908)
(0.106011 -0.00161545 0.00158268)
(0.104398 -0.000644805 0.00162383)
(0.104052 -0.00026842 0.00163238)
(0.104056 0.000195636 0.00163216)
(0.104411 0.000576328 0.00162336)
(0.106024 0.0015468 0.00158209)
(0.109271 0.00284013 0.00169334)
(0.0918946 0.000503718 0.00161609)
(0.0900236 0.00237288 0.00112209)
(0.110075 -0.00317615 0.00116778)
(0.10702 -0.0011121 0.00106231)
(0.105448 -0.000497455 0.00108291)
(0.105101 -0.00028877 0.0010934)
(0.105109 0.000173958 0.0010931)
(0.105471 0.000390258 0.00108296)
(0.107042 0.00101061 0.00106258)
(0.110074 0.00310284 0.00117117)
(0.0901437 -0.00240887 0.00112087)
(0.0889295 0.00367031 0.000711411)
(0.109995 -0.00333989 0.000715474)
(0.10751 -0.000680549 0.000609527)
(0.106077 -0.000496833 0.00062338)
(0.105725 -0.000325738 0.00064101)
(0.105738 0.00016033 0.000641792)
(0.106113 0.000343565 0.000623504)
(0.107547 0.00053602 0.000609149)
(0.11001 0.00324866 0.000716247)
(0.0891418 -0.00378423 0.000713005)
(0.0883968 0.00414583 0.000385773)
(0.10988 -0.00335916 0.000341388)
(0.108043 -0.000309207 0.000211225)
(0.106686 -0.000568088 0.000227841)
(0.106284 -0.000349825 0.000249785)
(0.106304 0.000122523 0.000250776)
(0.10674 0.000360162 0.000228437)
(0.108099 0.000110312 0.000209251)
(0.109922 0.00324129 0.000338244)
(0.0887285 -0.00433147 0.000390649)
(0.0880567 0.0042033 0.000130992)
(0.109781 -0.00330296 4.15616e-05)
(0.108617 -1.84672e-06 -0.000130905)
(0.1073 -0.000655826 -0.000107852)
(0.106843 -0.000347474 -8.92029e-05)
(0.10687 4.22194e-05 -9.01522e-05)
(0.107378 0.000382813 -0.000106519)
(0.108699 -0.000263526 -0.000132361)
(0.109862 0.00314335 3.58563e-05)
(0.0885435 -0.00443519 0.000137052)
(0.0877233 0.00406882 -5.82841e-05)
(0.109648 -0.00322686 -0.000181632)
(0.109129 0.000224055 -0.000401058)
(0.107843 -0.000759514 -0.000366927)
(0.107354 -0.000329174 -0.000359612)
(0.107391 -7.32771e-05 -0.000360565)
(0.107951 0.000404072 -0.000366546)
(0.109251 -0.000572004 -0.000400847)
(0.109783 0.00301014 -0.000187143)
(0.0884138 -0.00433449 -5.08334e-05)
(0.0873771 0.00385968 -0.000191953)
(0.109488 -0.0031489 -0.000338966)
(0.10957 0.000369658 -0.000603221)
(0.108302 -0.000883625 -0.000552148)
(0.107803 -0.000311302 -0.000560357)
(0.107854 -0.00021377 -0.000559513)
(0.108454 0.000420588 -0.000551627)
(0.109747 -0.000827197 -0.000605493)
(0.109715 0.00285733 -0.000342425)
(0.0883088 -0.00415842 -0.000180892)
(0.0870216 0.00361392 -0.000286806)
(0.109321 -0.00306873 -0.000443896)
(0.109965 0.00044732 -0.00075391)
(0.108706 -0.00102327 -0.000681976)
(0.108212 -0.00030666 -0.000705756)
(0.108282 -0.000379208 -0.000705771)
(0.108917 0.000423155 -0.00067839)
(0.11022 -0.00104716 -0.000761551)
(0.109687 0.00268507 -0.000445224)
(0.0882522 -0.00396134 -0.000272209)
(0.0866313 0.00334971 -0.0003597)
(0.109162 -0.0029922 -0.000500897)
(0.110324 0.000462785 -0.000864273)
(0.109073 -0.00117875 -0.000772679)
(0.108596 -0.000325496 -0.000811723)
(0.108689 -0.000572134 -0.000815082)
(0.109359 0.000397818 -0.000767914)
(0.110685 -0.00124964 -0.000883158)
(0.109702 0.00249328 -0.000502054)
(0.0882501 -0.00375773 -0.000329456)
(0.0861766 0.00307273 -0.000390688)
(0.108989 -0.002941 -0.000516564)
(0.110644 0.000427849 -0.000952755)
(0.109404 -0.00135604 -0.000835159)
(0.108951 -0.000379678 -0.000889034)
(0.109074 -0.000793742 -0.000897341)
(0.109781 0.000335894 -0.000831996)
(0.111137 -0.00145009 -0.000978835)
(0.109765 0.00228671 -0.000541172)
(0.0883 -0.00355649 -0.000356755)
(0.0856299 0.00278742 -0.000383272)
(0.108793 -0.00294028 -0.000533165)
(0.110917 0.000338068 -0.00101893)
(0.109698 -0.00156198 -0.00087489)
(0.109273 -0.000477042 -0.000942441)
(0.109444 -0.00104967 -0.000957329)
(0.110191 0.000229098 -0.000871447)
(0.111584 -0.00165408 -0.00105004)
(0.109878 0.00206466 -0.000565484)
(0.08841 -0.00338504 -0.000368675)
(0.0849876 0.00247918 -0.000373746)
(0.108537 -0.0029699 -0.000528813)
(0.111137 0.000174055 -0.00105145)
(0.109965 -0.00179648 -0.00089189)
(0.109597 -0.000628888 -0.000966977)
(0.109815 -0.00135422 -0.000992014)
(0.110609 6.41669e-05 -0.000887415)
(0.112046 -0.0018712 -0.00109776)
(0.110045 0.00183193 -0.000570478)
(0.088604 -0.0032513 -0.000368374)
(0.084159 0.00215533 -0.000363183)
(0.108268 -0.00305515 -0.000510259)
(0.111301 -7.62836e-05 -0.00106224)
(0.110202 -0.00209895 -0.000894017)
(0.109887 -0.000863255 -0.000938253)
(0.11019 -0.00170038 -0.0010071)
(0.111039 -0.000166111 -0.000883053)
(0.112537 -0.00210983 -0.00112656)
(0.110261 0.00155944 -0.000564898)
(0.0889197 -0.00313339 -0.000357414)
(0.0831199 0.00179921 -0.000343014)
(0.107945 -0.00321193 -0.000475254)
(0.111402 -0.000426015 -0.00105555)
(0.110399 -0.00249096 -0.000882823)
(0.110162 -0.00119857 -0.000940303)
(0.110559 -0.00211014 -0.00101076)
(0.111487 -0.000477318 -0.000873302)
(0.11307 -0.00239224 -0.00114061)
(0.110583 0.00124805 -0.000556882)
(0.0893492 -0.00303481 -0.00034005)
(0.0817882 0.00140196 -0.000309493)
(0.107562 -0.00344795 -0.000427266)
(0.111439 -0.000889802 -0.00102696)
(0.110561 -0.00297278 -0.000857218)
(0.110411 -0.00166018 -0.000927014)
(0.110932 -0.00262507 -0.00100204)
(0.111969 -0.000899235 -0.000855112)
(0.113659 -0.00274082 -0.00113801)
(0.111019 0.00089358 -0.000539375)
(0.0899499 -0.00295844 -0.000314249)
(0.0800962 0.000953494 -0.00025566)
(0.107085 -0.00379297 -0.000361723)
(0.111403 -0.00149939 -0.000974508)
(0.110694 -0.00357755 -0.000816567)
(0.110662 -0.00227838 -0.000896298)
(0.11133 -0.00327005 -0.00097923)
(0.112509 -0.0014617 -0.000825799)
(0.114333 -0.0031822 -0.00112146)
(0.111608 0.000465264 -0.000514304)
(0.0907649 -0.00291622 -0.000276899)
(0.0779605 0.00044851 -0.000171919)
(0.106466 -0.00427521 -0.000269801)
(0.111287 -0.00229397 -0.000895219)
(0.110793 -0.00434768 -0.000757176)
(0.110913 -0.00309401 -0.000845174)
(0.111767 -0.00408147 -0.000938534)
(0.11313 -0.00220205 -0.000783863)
(0.115128 -0.00374933 -0.00108988)
(0.112401 -6.11038e-05 -0.000480425)
(0.09185 -0.00291721 -0.000225311)
(0.0752918 -0.000124549 -4.37919e-05)
(0.105631 -0.00492382 -0.000136094)
(0.111078 -0.00332192 -0.000777853)
(0.110857 -0.00533228 -0.000671569)
(0.111166 -0.0041581 -0.000767914)
(0.112254 -0.00510882 -0.000875201)
(0.113858 -0.0031701 -0.000724413)
(0.116085 -0.00448582 -0.00103884)
(0.113465 -0.000714596 -0.000434243)
(0.0932841 -0.00297359 -0.000154291)
(0.0719992 -0.000774109 0.00014946)
(0.104484 -0.00575617 5.60545e-05)
(0.110759 -0.00463573 -0.000607347)
(0.110883 -0.006588 -0.000548477)
(0.111424 -0.00553218 -0.000655322)
(0.112806 -0.00641773 -0.000780955)
(0.114724 -0.00443306 -0.000639554)
(0.117258 -0.00545041 -0.000961193)
(0.114884 -0.00153876 -0.000368585)
(0.0951812 -0.00309898 -5.60649e-05)
(0.0679749 -0.00148723 0.000434054)
(0.102909 -0.00679514 0.000332708)
(0.110303 -0.00629176 -0.000362597)
(0.110867 -0.00818354 -0.000370899)
(0.111689 -0.00729071 -0.000492894)
(0.113435 -0.00809306 -0.000643046)
(0.115766 -0.00608107 -0.000518491)
(0.118716 -0.00672768 -0.00084734)
(0.116772 -0.00259805 -0.000273373)
(0.0976934 -0.00331847 8.13839e-05)
(0.0631636 -0.00224287 0.000840072)
(0.100741 -0.0080368 0.000725109)
(0.109666 -0.00833433 -1.60763e-05)
(0.110803 -0.0101961 -0.000114294)
(0.111957 -0.00952204 -0.000260486)
(0.114151 -0.0102447 -0.000443419)
(0.117022 -0.00823728 -0.000345497)
(0.120546 -0.00844118 -0.000681897)
(0.119285 -0.00398947 -0.000134684)
(0.101039 -0.00366862 0.000274548)
(0.0575173 -0.00298224 0.00139037)
(0.097811 -0.00945172 0.00126529)
(0.108766 -0.0107831 0.000466702)
(0.110668 -0.0127062 0.000255603)
(0.112212 -0.0123286 6.94041e-05)
(0.114946 -0.0130155 -0.000158119)
(0.118525 -0.0110749 -9.92848e-05)