/*--------------------------------*- C++ -*----------------------------------*\
| =========                 |                                                 |
| \\      /  F ield         | OpenFOAM: The Open Source CFD Toolbox           |
|  \\    /   O peration     | Version:  4.1                                   |
|   \\  /    A nd           | Web:      www.OpenFOAM.org                      |
|    \\/     M anipulation  |                                                 |
\*---------------------------------------------------------------------------*/
FoamFile
{
    version     2.0;
    format      ascii;
    class       volScalarField;
    location    "10";
    object      T;
}
// * * * * * * * * * * * * * * * * * * * * * * * * * * * * * * * * * * * * * //

dimensions      [0 0 0 1 0 0 0];

internalField   nonuniform List<scalar> 
12000
(
0.998133
1.00222
0.998506
0.999253
0.999279
0.999278
0.999252
0.998507
1.00224
0.998111
0.987431
0.989235
0.988748
0.9903
0.990376
0.99037
0.990295
0.988757
0.989282
0.987404
0.980072
0.976231
0.980008
0.981161
0.981188
0.981193
0.981172
0.980054
0.976301
0.980059
0.964614
0.95889
0.965283
0.965614
0.965683
0.965677
0.965655
0.965366
0.958973
0.964644
0.935217
0.930642
0.938651
0.938734
0.939212
0.939149
0.938817
0.938802
0.930781
0.935344
0.891473
0.889221
0.898445
0.898892
0.899968
0.89993
0.899038
0.89869
0.889534
0.891791
0.83366
0.83416
0.844356
0.845504
0.847162
0.847238
0.845742
0.844747
0.834749
0.834292
0.762274
0.765615
0.776609
0.778665
0.780847
0.781028
0.779034
0.777236
0.76657
0.763367
0.67919
0.685134
0.696754
0.699784
0.702427
0.70269
0.700334
0.697684
0.686533
0.680884
0.587983
0.59599
0.607959
0.611896
0.614897
0.615235
0.612673
0.609267
0.597898
0.590385
0.493369
0.502697
0.514668
0.519309
0.522518
0.522932
0.520323
0.516392
0.505158
0.496533
0.400426
0.410301
0.421856
0.426889
0.430148
0.430639
0.428138
0.423988
0.413299
0.404338
0.31383
0.323544
0.334242
0.339331
0.342495
0.343051
0.3408
0.336736
0.326999
0.318383
0.237192
0.246164
0.255659
0.260497
0.263437
0.26404
0.262134
0.258422
0.249955
0.242194
0.172687
0.180527
0.188604
0.192951
0.195572
0.196197
0.194684
0.191509
0.184491
0.177901
0.120999
0.12751
0.134093
0.137808
0.140052
0.140673
0.139553
0.137003
0.131464
0.126168
0.0815277
0.0866867
0.0918327
0.0948644
0.0967122
0.0973029
0.0965383
0.0946143
0.0904514
0.0864129
0.0527781
0.0566905
0.0605536
0.0629239
0.0643911
0.0649292
0.0644578
0.0630952
0.0601177
0.057189
0.0327942
0.0356406
0.0384298
0.0402108
0.041336
0.0418057
0.0415556
0.0406529
0.0386274
0.0366043
0.0195341
0.0215235
0.023464
0.0247533
0.025588
0.0259811
0.0258825
0.0253276
0.0240189
0.0226861
0.0111362
0.0124717
0.0137752
0.0146763
0.015276
0.0155915
0.0155856
0.0152741
0.0144732
0.0136355
0.00606309
0.00692274
0.00776944
0.0083784
0.00879599
0.009039
0.00908125
0.00892723
0.00846574
0.00796382
0.00314421
0.00367272
0.00420446
0.00460257
0.00488453
0.00506414
0.00512464
0.00506424
0.0048166
0.00453072
0.00154846
0.00185663
0.00217868
0.0024302
0.00261466
0.00274213
0.00280299
0.00279287
0.00267216
0.00251846
0.000722292
0.000890919
0.00107771
0.00123078
0.00134752
0.00143441
0.00148674
0.00149988
0.0014498
0.001373
0.000318736
0.000404169
0.000506663
0.000595699
0.00066692
0.000723789
0.000764498
0.000785487
0.000771923
0.0007378
0.000133056
0.000172592
0.000224914
0.000273823
0.000315443
0.000351111
0.000380448
0.000401413
0.000404949
0.000393093
5.30308e-05
6.95279e-05
9.36586e-05
0.000118447
0.000141357
0.000162571
0.000182233
0.000199686
0.000210136
0.000209708
2.01852e-05
2.63752e-05
3.63167e-05
4.76335e-05
5.92009e-05
7.09312e-05
8.31302e-05
9.59693e-05
0.000108148
0.000113053
7.12938e-06
9.18553e-06
1.28636e-05
1.74164e-05
2.2496e-05
2.8129e-05
3.47348e-05
4.27629e-05
5.42884e-05
6.43121e-05
1.00223
1.00549
1.00181
1.00273
1.0027
1.0027
1.00273
1.00181
1.00554
1.00218
0.989257
0.99038
0.990148
0.992111
0.99211
0.99211
0.992102
0.990152
0.990488
0.989217
0.976258
0.973218
0.977006
0.978162
0.978078
0.978073
0.97816
0.977046
0.973339
0.976206
0.95892
0.953987
0.960727
0.960727
0.960624
0.960635
0.960743
0.960812
0.95415
0.958895
0.930665
0.926487
0.935298
0.934855
0.935096
0.935174
0.934909
0.935442
0.926752
0.930733
0.889227
0.887431
0.897523
0.897367
0.898281
0.898394
0.897478
0.897759
0.887812
0.889517
0.834135
0.835412
0.846354
0.846949
0.848615
0.848721
0.847149
0.846736
0.83597
0.834776
0.76554
0.770102
0.781758
0.78335
0.785672
0.785794
0.783679
0.782343
0.770936
0.766652
0.684987
0.692602
0.704882
0.70759
0.710422
0.710595
0.708089
0.705751
0.693835
0.686685
0.595748
0.605789
0.6185
0.62227
0.625458
0.625708
0.622977
0.619718
0.607532
0.598127
0.502342
0.513999
0.52678
0.531384
0.534773
0.535109
0.532334
0.528386
0.516306
0.50547
0.409822
0.422181
0.434577
0.439696
0.443118
0.44354
0.440894
0.436581
0.425051
0.413699
0.322949
0.335097
0.34667
0.351943
0.355242
0.355741
0.353361
0.349038
0.338476
0.327475
0.245471
0.256689
0.267056
0.272141
0.275189
0.275746
0.273729
0.269706
0.260451
0.25048
0.179768
0.189568
0.198462
0.203089
0.205794
0.206385
0.204779
0.20128
0.193538
0.185034
0.126727
0.134862
0.142173
0.146167
0.148478
0.149074
0.14788
0.145024
0.138849
0.131991
0.0859236
0.092365
0.0981264
0.10141
0.103314
0.103886
0.103064
0.100875
0.0961832
0.0909332
0.0559875
0.0608648
0.0652236
0.0678049
0.0693185
0.0698444
0.0693303
0.0677543
0.0643599
0.0605336
0.0350289
0.0385667
0.0417373
0.0436841
0.0448478
0.0453097
0.0450289
0.0439655
0.0416287
0.0389701
0.021022
0.0234827
0.0257037
0.0271166
0.0279829
0.0283713
0.0282518
0.0275825
0.0260534
0.0242907
0.0120853
0.0137279
0.0152281
0.0162171
0.0168419
0.0171552
0.0171357
0.0167471
0.0157979
0.0146823
0.00664444
0.007696
0.00867425
0.00934316
0.00978002
0.0100225
0.0100564
0.0098533
0.00929654
0.00862278
0.00348668
0.00413077
0.00474659
0.0051842
0.00548035
0.00566069
0.00571637
0.00562644
0.0053203
0.00493257
0.00174232
0.00211823
0.00249191
0.00276875
0.00296333
0.00309228
0.00315063
0.00312374
0.00296865
0.00275698
0.000827113
0.00103492
0.00125263
0.00142167
0.00154544
0.00163413
0.00168543
0.00168961
0.00162015
0.00151159
0.000372258
0.000480174
0.000601118
0.000700313
0.000776364
0.000835
0.000875595
0.000892195
0.000868169
0.000817217
0.000158662
0.000210732
0.000274154
0.000329713
0.000374681
0.000411881
0.000441607
0.000460739
0.000458913
0.000438374
6.42037e-05
8.72795e-05
0.000118164
0.00014748
0.000172826
0.000195317
0.000215606
0.000232615
0.000240591
0.000235752
2.46955e-05
3.4037e-05
4.78068e-05
6.21402e-05
7.55451e-05
8.83398e-05
0.000101222
0.000114291
0.000125653
0.000128336
8.89707e-06
1.22829e-05
1.77857e-05
2.41103e-05
3.05371e-05
3.71234e-05
4.44617e-05
5.30665e-05
6.48271e-05
7.37338e-05
0.998516
1.00181
0.997746
0.998485
0.998452
0.998451
0.998482
0.997749
1.00186
0.998454
0.988774
0.990155
0.989982
0.991969
0.992015
0.99201
0.991951
0.989974
0.99026
0.988721
0.980043
0.977015
0.981096
0.982381
0.98232
0.982312
0.98237
0.981139
0.977145
0.979959
0.965314
0.96073
0.96776
0.967714
0.967622
0.967625
0.967724
0.967844
0.96087
0.965281
0.938657
0.935287
0.944399
0.943758
0.944097
0.944128
0.943801
0.944533
0.935477
0.938754
0.898405
0.897489
0.907942
0.90756
0.908675
0.908714
0.907661
0.908169
0.897788
0.898712
0.84424
0.846283
0.857645
0.857996
0.859893
0.859945
0.858191
0.858015
0.84678
0.844863
0.776388
0.781628
0.793721
0.795052
0.797585
0.797678
0.795382
0.794301
0.782424
0.777461
0.696381
0.704679
0.71739
0.719821
0.72283
0.72299
0.720322
0.718249
0.705875
0.698051
0.6074
0.618211
0.631329
0.634822
0.638154
0.638397
0.635526
0.632531
0.619913
0.609769
0.513906
0.526392
0.539567
0.543924
0.547423
0.547755
0.544861
0.541156
0.528669
0.517024
0.420884
0.434091
0.446886
0.451804
0.455309
0.455728
0.452979
0.44887
0.43695
0.424747
0.333084
0.346092
0.358064
0.363186
0.36655
0.367048
0.364579
0.360408
0.34948
0.337604
0.254353
0.266409
0.277163
0.28215
0.285252
0.28581
0.283717
0.279791
0.270198
0.259367
0.187204
0.197778
0.207042
0.21162
0.214372
0.214963
0.213292
0.209844
0.201797
0.192483
0.132672
0.141486
0.149137
0.15312
0.155473
0.15607
0.154821
0.151982
0.14554
0.137958
0.090464
0.0974701
0.103532
0.106831
0.108772
0.109346
0.108479
0.106284
0.101368
0.0955073
0.0593006
0.0646265
0.0692371
0.0718495
0.0733951
0.0739239
0.073374
0.0717801
0.0682037
0.0638936
0.0373402
0.0412193
0.0445908
0.046574
0.0477646
0.0482301
0.0479225
0.0468369
0.0443593
0.0413384
0.0225645
0.0252748
0.0276485
0.0290963
0.0299841
0.0303768
0.0302382
0.029548
0.0279149
0.0258953
0.0130717
0.014889
0.0165
0.017519
0.0181605
0.0184782
0.0184461
0.0180405
0.0170181
0.0157293
0.00724951
0.00841854
0.00947367
0.0101663
0.0106157
0.0108624
0.0108887
0.0106733
0.0100676
0.00928235
0.0038431
0.00456324
0.00523034
0.00568559
0.00599075
0.00617484
0.00622645
0.00612843
0.00579121
0.00533498
0.00194395
0.00236748
0.00277429
0.00306363
0.00326451
0.00339658
0.00345315
0.00342143
0.00324764
0.00299567
0.000936609
0.00117333
0.00141197
0.00158962
0.00171768
0.00180878
0.00185964
0.00186127
0.00178121
0.00164993
0.000429182
0.000554188
0.000688206
0.000793295
0.00087219
0.000932581
0.000973409
0.000988929
0.000959281
0.000896074
0.000186834
0.00024882
0.000320376
0.000379977
0.000426805
0.00046519
0.0004954
0.000514324
0.000509826
0.000482944
7.72883e-05
0.000105949
0.000141942
0.000174094
0.000200689
0.000223932
0.00024472
0.000261976
0.000268984
0.000261027
3.03892e-05
4.26784e-05
5.95689e-05
7.58981e-05
9.02014e-05
0.000103472
0.00011677
0.000130277
0.000141679
0.000142939
1.11857e-05
1.60017e-05
2.32538e-05
3.0871e-05
3.79491e-05
4.48552e-05
5.25002e-05
6.15267e-05
7.39795e-05
8.2645e-05
0.999264
1.00273
0.998486
0.999277
0.99925
0.999247
0.999272
0.998485
1.00279
0.999198
0.990326
0.99212
0.991971
0.994169
0.994231
0.994223
0.994147
0.99196
0.992228
0.990271
0.9812
0.978169
0.982381
0.983906
0.983839
0.983829
0.983892
0.982426
0.978297
0.981101
0.96566
0.960717
0.967705
0.967733
0.967591
0.96759
0.967742
0.967788
0.960845
0.965612
0.938731
0.934832
0.943738
0.942998
0.943267
0.943286
0.943043
0.943874
0.93501
0.938805
0.898814
0.897302
0.907514
0.906904
0.907936
0.907983
0.907006
0.907737
0.897623
0.899066
0.845326
0.846796
0.857912
0.857944
0.859744
0.859827
0.858135
0.858269
0.847334
0.845892
0.778317
0.783086
0.794922
0.795874
0.798295
0.798427
0.796191
0.795476
0.783912
0.779362
0.699215
0.707183
0.71963
0.721655
0.724548
0.724745
0.722138
0.720458
0.708405
0.700861
0.611065
0.621694
0.634554
0.637655
0.640874
0.641148
0.638339
0.635721
0.623416
0.613413
0.518176
0.530628
0.543574
0.547582
0.550976
0.551332
0.548491
0.545124
0.532913
0.521295
0.425446
0.438761
0.45137
0.455994
0.459405
0.459844
0.457137
0.453316
0.441614
0.429336
0.33761
0.350845
0.362676
0.367566
0.370854
0.371365
0.368928
0.364986
0.354208
0.342188
0.258559
0.270916
0.28158
0.286396
0.28944
0.290007
0.287935
0.284178
0.274669
0.26366
0.190883
0.20179
0.211012
0.215472
0.218183
0.218782
0.217122
0.213789
0.205772
0.196272
0.135714
0.144857
0.152505
0.156413
0.15874
0.159343
0.158097
0.155329
0.148882
0.141121
0.0928473
0.10015
0.106237
0.109494
0.11142
0.112
0.111132
0.108976
0.104033
0.0980125
0.0610764
0.0666489
0.0713007
0.0738947
0.075434
0.0759677
0.0754144
0.0738387
0.0702269
0.065784
0.0386012
0.0426714
0.0460902
0.0480698
0.0492594
0.0497296
0.0494182
0.0483385
0.0458251
0.0427013
0.0234194
0.0262695
0.0286886
0.0301409
0.0310307
0.0314278
0.0312862
0.0305958
0.0289316
0.0268365
0.0136259
0.0155405
0.0171905
0.0182173
0.018862
0.0191837
0.0191498
0.0187419
0.0176953
0.0163539
0.0075936
0.00882734
0.0099134
0.0106142
0.0110671
0.0113173
0.0113428
0.0111249
0.0105019
0.00968202
0.00404803
0.0048095
0.00549952
0.00596199
0.0062703
0.00645726
0.00650885
0.00640908
0.00606051
0.00558248
0.00206116
0.00251015
0.00293304
0.00322818
0.00343163
0.00356591
0.00362297
0.00359033
0.00340964
0.00314467
0.00100097
0.0012529
0.00150233
0.00168438
0.00181439
0.00190713
0.0019587
0.00196011
0.00187622
0.00173758
0.000463036
0.000596908
0.000737922
0.000846219
0.000926538
0.000988059
0.00102962
0.00104538
0.00101391
0.000946772
0.000203825
0.000270868
0.000346839
0.000408709
0.000456528
0.000495643
0.000526481
0.000545893
0.000540796
0.000511996
8.53333e-05
0.000116821
0.000155538
0.000189239
0.000216488
0.000240163
0.000261423
0.00027924
0.000286374
0.000277642
3.39277e-05
4.77394e-05
6.62544e-05
8.3585e-05
9.82944e-05
0.000111789
0.0001254
0.000139419
0.00015136
0.00015253
1.2611e-05
1.81792e-05
2.6317e-05
3.45089e-05
4.17969e-05
4.87812e-05
5.65888e-05
6.59731e-05
7.91706e-05
8.82962e-05
0.99929
1.0027
0.998453
0.99925
0.999218
0.999216
0.999244
0.998451
1.00275
0.999223
0.990401
0.992121
0.99202
0.994234
0.994282
0.994272
0.994208
0.992008
0.992236
0.990346
0.981227
0.978086
0.982325
0.983845
0.98375
0.98374
0.983825
0.982368
0.978219
0.981132
0.965687
0.96064
0.967625
0.967595
0.967411
0.967409
0.967601
0.967703
0.960759
0.965648
0.939098
0.935133
0.944087
0.943267
0.943497
0.943513
0.943309
0.944214
0.935299
0.93918
0.899763
0.898264
0.908607
0.907923
0.90894
0.908982
0.908021
0.908818
0.898565
0.900025
0.84686
0.848462
0.859744
0.859708
0.861523
0.861599
0.859892
0.860082
0.848962
0.847456
0.780376
0.785335
0.79733
0.798222
0.800679
0.800804
0.79853
0.797872
0.786121
0.781451
0.701712
0.709853
0.722446
0.724421
0.727358
0.727551
0.724894
0.72327
0.711051
0.703374
0.61386
0.624629
0.63762
0.640678
0.643943
0.644214
0.641351
0.638788
0.62634
0.616225
0.521106
0.533664
0.546723
0.550697
0.554133
0.554488
0.551598
0.548285
0.535953
0.52424
0.428341
0.441737
0.454444
0.45904
0.462488
0.462928
0.460178
0.456408
0.444601
0.432255
0.340317
0.35362
0.365538
0.370407
0.373725
0.374238
0.371766
0.367868
0.356997
0.344935
0.260965
0.273383
0.284126
0.288928
0.291995
0.292564
0.290466
0.286744
0.277158
0.266112
0.19292
0.203883
0.213175
0.217629
0.220359
0.220961
0.219281
0.215973
0.207895
0.198354
0.137359
0.14655
0.154262
0.158171
0.160513
0.161119
0.159859
0.157108
0.150613
0.142808
0.0941147
0.10146
0.107601
0.110865
0.112803
0.113387
0.112509
0.110363
0.105382
0.0993212
0.0620088
0.0676179
0.0723151
0.0749175
0.0764675
0.0770048
0.0764452
0.074875
0.0712343
0.0667561
0.0392565
0.0433577
0.0468125
0.0488015
0.0499999
0.0504736
0.0501585
0.0490814
0.0465466
0.0433939
0.0238599
0.0267352
0.0291818
0.0306431
0.03154
0.0319403
0.0317968
0.0311075
0.0294281
0.0273109
0.0139093
0.0158437
0.017514
0.0185485
0.0191988
0.0195232
0.0194884
0.0190811
0.0180242
0.016667
0.00776828
0.00901697
0.0101173
0.0108244
0.0112814
0.0115339
0.0115593
0.0113417
0.0107122
0.00988161
0.00415121
0.00492349
0.00562324
0.00609054
0.00640187
0.00659069
0.00664256
0.00654305
0.00619056
0.00570579
0.00211949
0.00257601
0.00300539
0.00330405
0.00350966
0.00364537
0.0037029
0.0036706
0.00348776
0.00321876
0.00103246
0.00128943
0.00154313
0.00172767
0.00185919
0.00195297
0.00200505
0.00200687
0.00192197
0.0017811
0.000479201
0.000616302
0.000760097
0.000870102
0.000951446
0.0010137
0.00105573
0.00107192
0.00104013
0.000971872
0.00021168
0.000280676
0.00035842
0.00042143
0.00046992
0.000509526
0.000540756
0.000560584
0.000555553
0.000526275
8.89135e-05
0.000121506
0.000161315
0.000195743
0.000223407
0.000247386
0.00026894
0.000287127
0.000294534
0.000285698
3.54406e-05
4.98304e-05
6.89736e-05
8.6734e-05
0.000101678
0.000115341
0.000129149
0.000143464
0.00015577
0.000157024
1.32027e-05
1.90402e-05
2.75001e-05
3.59115e-05
4.33065e-05
5.03624e-05
5.82782e-05
6.78539e-05
8.14376e-05
9.08723e-05
0.99929
1.0027
0.998453
0.99925
0.999218
0.999215
0.999243
0.998451
1.00275
0.999223
0.9904
0.99212
0.992019
0.994232
0.994279
0.994271
0.994207
0.992008
0.992234
0.990343
0.981228
0.978082
0.982322
0.98384
0.983744
0.983735
0.983823
0.982367
0.978215
0.981129
0.96569
0.960632
0.967622
0.967591
0.967405
0.967403
0.967597
0.9677
0.960755
0.965646
0.939103
0.935123
0.944086
0.943265
0.943494
0.943506
0.943305
0.944213
0.935297
0.939174
0.899765
0.898256
0.908608
0.90792
0.908937
0.908975
0.908018
0.908819
0.898561
0.900017
0.846879
0.848444
0.859737
0.859701
0.861516
0.861592
0.859888
0.860081
0.848955
0.847451
0.780406
0.785308
0.797321
0.798211
0.80067
0.800796
0.798523
0.797866
0.786111
0.781447
0.701721
0.709836
0.722441
0.724407
0.727348
0.727541
0.724884
0.723263
0.711045
0.70336
0.613841
0.624622
0.637619
0.640663
0.643932
0.644204
0.641341
0.638782
0.626338
0.616197
0.521072
0.533663
0.546723
0.550681
0.554119
0.554476
0.551587
0.548275
0.535947
0.524214
0.428306
0.441733
0.454441
0.459023
0.462473
0.462914
0.460165
0.456394
0.444589
0.432234
0.340283
0.353614
0.365531
0.37039
0.373708
0.374223
0.371752
0.367851
0.356982
0.344919
0.260933
0.273374
0.284115
0.28891
0.291978
0.292549
0.29045
0.286725
0.27714
0.266099
0.192892
0.203871
0.213162
0.217611
0.220341
0.220944
0.219264
0.215953
0.207877
0.198341
0.137333
0.146538
0.154248
0.158153
0.160496
0.161103
0.159842
0.15709
0.150596
0.142794
0.0940927
0.101447
0.107587
0.110849
0.112788
0.113372
0.112493
0.110348
0.105368
0.0993068
0.0619906
0.0676054
0.0723021
0.0749034
0.0764535
0.0769912
0.0764319
0.0748614
0.0712215
0.0667435
0.0392421
0.0433465
0.0468011
0.0487895
0.049988
0.050462
0.0501471
0.0490698
0.0465355
0.0433836
0.0238489
0.0267258
0.0291723
0.0306333
0.0315302
0.0319307
0.0317874
0.0310979
0.0294187
0.0273028
0.0139012
0.0158362
0.0175064
0.0185408
0.0191911
0.0195156
0.0194811
0.0190734
0.0180165
0.0166607
0.00776268
0.00901137
0.0101116
0.0108187
0.0112756
0.0115281
0.0115536
0.0113358
0.0107062
0.00987671
0.00414748
0.00491956
0.00561919
0.00608642
0.00639766
0.0065864
0.00663834
0.00653865
0.00618606
0.00570207
0.00211715
0.00257343
0.00300267
0.00330124
0.00350674
0.00364235
0.00369987
0.00366743
0.0034845
0.003216
0.0010311
0.00128784
0.00154141
0.00172584
0.00185725
0.00195093
0.00200296
0.00200466
0.00191968
0.0017791
0.000478489
0.000615404
0.00075908
0.000868989
0.000950232
0.00101239
0.00105435
0.00107045
0.00103858
0.000970469
0.000211357
0.000280221
0.000357866
0.000420796
0.000469206
0.000508729
0.000539886
0.000559631
0.000554538
0.000525322
8.87942e-05
0.000121308
0.000161046
0.000195416
0.000223025
0.000246942
0.000268434
0.000286551
0.0002939
0.000285086
3.54121e-05
4.97629e-05
6.88615e-05
8.65847e-05
0.000101493
0.000115116
0.000128878
0.000143137
0.000155382
0.000156633
1.31988e-05
1.90244e-05
2.74652e-05
3.58594e-05
4.32381e-05
5.02744e-05
5.81644e-05
6.77048e-05
8.12379e-05
9.06555e-05
0.999264
1.00273
0.998484
0.999275
0.999247
0.999244
0.999269
0.998482
1.00279
0.999196
0.990324
0.99211
0.991958
0.994155
0.994214
0.994206
0.99413
0.991944
0.992219
0.990258
0.981193
0.978163
0.982373
0.983896
0.983822
0.983815
0.983879
0.982414
0.978286
0.981102
0.965672
0.960705
0.967702
0.967727
0.967579
0.967579
0.967738
0.967786
0.960833
0.965618
0.938788
0.934785
0.943736
0.942994
0.943262
0.943277
0.943044
0.943874
0.934994
0.93882
0.898857
0.89725
0.907522
0.906898
0.907935
0.907973
0.907005
0.907731
0.897574
0.899112
0.845316
0.846766
0.857927
0.857934
0.859742
0.859817
0.858127
0.858261
0.847268
0.845929
0.778273
0.783073
0.794937
0.79586
0.798291
0.798416
0.796175
0.795471
0.783859
0.779352
0.699155
0.707176
0.719637
0.721636
0.724539
0.724731
0.722115
0.72045
0.708365
0.700817
0.610997
0.621684
0.63455
0.637628
0.640858
0.641127
0.638308
0.635711
0.623379
0.613353
0.518108
0.530613
0.543557
0.547548
0.55095
0.551304
0.548457
0.545113
0.532878
0.521223
0.425382
0.438739
0.451342
0.455954
0.459373
0.459811
0.457098
0.4533
0.441577
0.429257
0.337548
0.350815
0.36264
0.367523
0.370815
0.371327
0.368886
0.364967
0.354171
0.342107
0.258499
0.270878
0.281538
0.286351
0.289397
0.289966
0.287891
0.284156
0.274634
0.263579
0.190827
0.201748
0.210966
0.215426
0.218139
0.218739
0.217078
0.213762
0.205739
0.196196
0.135662
0.144811
0.152458
0.156368
0.158696
0.159301
0.158054
0.1553
0.148849
0.141054
0.0928011
0.100106
0.106191
0.109452
0.111379
0.111961
0.111092
0.108946
0.104002
0.0979562
0.0610367
0.0666082
0.07126
0.0738563
0.075397
0.0759325
0.0753791
0.0738096
0.0701979
0.0657382
0.0385683
0.0426361
0.0460552
0.0480369
0.0492275
0.0496992
0.049388
0.0483121
0.0457993
0.0426654
0.0233933
0.0262404
0.0286598
0.0301138
0.0310044
0.0314025
0.0312613
0.0305731
0.0289095
0.0268089
0.0136062
0.0155177
0.017168
0.018196
0.0188412
0.0191636
0.0191299
0.0187232
0.0176771
0.016333
0.00757954
0.00881046
0.00989652
0.0105982
0.0110513
0.0113018
0.0113274
0.0111102
0.0104875
0.00966644
0.00403852
0.00479772
0.0054875
0.00595044
0.00625881
0.00644579
0.00649742
0.00639785
0.00604948
0.00557106
0.0020551
0.00250242
0.00292491
0.00322021
0.00342359
0.00355775
0.00361473
0.0035821
0.00340149
0.00313644
0.000997361
0.00124814
0.00149712
0.00167914
0.00180902
0.00190156
0.00195296
0.00195428
0.00187039
0.00173177
0.000461038
0.000594173
0.000734788
0.000842961
0.000923125
0.000984436
0.00102579
0.0010414
0.00100988
0.000942756
0.000202817
0.000269419
0.000345075
0.000406799
0.000454478
0.000493409
0.000524046
0.000543275
0.000538091
0.000509279
8.48865e-05
0.000116127
0.00015463
0.000188206
0.000215351
0.00023889
0.000259981
0.000277617
0.000284638
0.000275886
3.37636e-05
4.74466e-05
6.58285e-05
8.30726e-05
9.77144e-05
0.00011112
0.000124604
0.000138463
0.000150262
0.000151383
1.25567e-05
1.80721e-05
2.61456e-05
3.42955e-05
4.15547e-05
4.8499e-05
5.62368e-05
6.55119e-05
7.85727e-05
8.76464e-05
0.998516
1.00181
0.997746
0.998485
0.998451
0.99845
0.998479
0.997744
1.00187
0.998453
0.988775
0.990151
0.989966
0.991951
0.992
0.991994
0.99193
0.989956
0.990258
0.988715
0.980056
0.977026
0.981111
0.982396
0.982335
0.98233
0.982385
0.981158
0.977163
0.979975
0.965331
0.960726
0.967778
0.96773
0.967639
0.967641
0.967743
0.967865
0.960866
0.9653
0.938669
0.935264
0.944409
0.943762
0.944108
0.944121
0.943813
0.944542
0.935443
0.938778
0.898396
0.897451
0.907937
0.907543
0.90865
0.908689
0.907656
0.908165
0.897743
0.898716
0.84421
0.846238
0.857619
0.85796
0.859829
0.859909
0.858158
0.857995
0.846746
0.844819
0.776333
0.781581
0.79368
0.795006
0.797497
0.79763
0.795325
0.794265
0.782389
0.777395
0.696312
0.704626
0.717336
0.719764
0.72273
0.72293
0.720248
0.7182
0.705833
0.697972
0.607335
0.618149
0.631261
0.634758
0.638051
0.638325
0.635444
0.632471
0.619858
0.609685
0.513835
0.526323
0.53949
0.543857
0.54732
0.547677
0.544774
0.541089
0.528601
0.516939
0.4208
0.434014
0.446806
0.451734
0.455208
0.455647
0.452889
0.448802
0.436878
0.424654
0.332996
0.346008
0.357981
0.363114
0.366453
0.366965
0.36449
0.360341
0.349409
0.337503
0.254265
0.266319
0.277077
0.282076
0.285159
0.285727
0.283631
0.279724
0.27013
0.259262
0.187119
0.197687
0.206956
0.211544
0.214283
0.214882
0.213211
0.209776
0.201733
0.192381
0.132589
0.1414
0.149055
0.153046
0.155392
0.155994
0.154746
0.151917
0.145481
0.137865
0.0903862
0.0973907
0.103456
0.106762
0.108699
0.109278
0.108412
0.106223
0.101313
0.0954262
0.059232
0.0645552
0.0691694
0.071787
0.0733314
0.0738633
0.073315
0.0717247
0.0681543
0.0638258
0.0372821
0.0411578
0.0445327
0.0465201
0.0477106
0.0481785
0.0478723
0.0467887
0.044316
0.0412835
0.0225175
0.0252242
0.0276006
0.0290518
0.02994
0.0303343
0.0301969
0.0295079
0.0278783
0.0258518
0.0130352
0.0148493
0.0164623
0.0174838
0.0181257
0.0184444
0.0184131
0.0180082
0.0169883
0.0156957
0.00722266
0.00838895
0.00944515
0.0101396
0.0105891
0.0108364
0.0108632
0.0106481
0.010044
0.00925701
0.00382429
0.00454221
0.00520973
0.00566604
0.00597131
0.00615554
0.00620734
0.00610942
0.00577319
0.00531629
0.00193149
0.00235327
0.00276006
0.00304993
0.00325079
0.00338274
0.00343929
0.00340752
0.00323428
0.00298219
0.000928821
0.0011642
0.00140258
0.0015804
0.00170834
0.0017992
0.00184991
0.0018514
0.00177159
0.00164039
0.000424582
0.000548627
0.000682295
0.000787348
0.000866085
0.0009262
0.000966797
0.000982122
0.00095255
0.000889451
0.000184302
0.000245615
0.000316827
0.000376308
0.000422985
0.000461119
0.000491073
0.000509762
0.000505223
0.000478408
7.60409e-05
0.000104237
0.000139934
0.000171954
0.000198427
0.000221475
0.000242026
0.000259036
0.000265921
0.000258
2.98362e-05
4.18316e-05
5.8496e-05
7.47168e-05
8.89378e-05
0.000102074
0.000115176
0.000128442
0.000139656
0.00014088
1.09612e-05
1.56211e-05
2.27276e-05
3.02703e-05
3.73074e-05
4.41472e-05
5.16696e-05
6.05096e-05
7.27375e-05
8.13642e-05
1.00224
1.00553
1.00186
1.00278
1.00275
1.00275
1.00278
1.00186
1.00559
1.0022
0.989275
0.990461
0.99023
0.992194
0.992197
0.992192
0.992182
0.990235
0.990597
0.989252
0.976259
0.973291
0.977086
0.978231
0.978146
0.978143
0.978231
0.977133
0.973448
0.976234
0.958908
0.954012
0.960752
0.96074
0.960651
0.960656
0.960756
0.960827
0.954148
0.958923
0.930646
0.926461
0.935274
0.934835
0.935135
0.935148
0.934884
0.9354
0.926631
0.930757
0.889199
0.887373
0.897462
0.897315
0.898299
0.898335
0.897439
0.897688
0.887644
0.889498
0.834095
0.835334
0.846271
0.846867
0.848571
0.848651
0.847092
0.846654
0.835809
0.8347
0.765488
0.770014
0.781664
0.783253
0.785577
0.78571
0.783598
0.782263
0.770802
0.766533
0.684921
0.692507
0.704781
0.707479
0.710297
0.710496
0.707988
0.70567
0.693718
0.686547
0.595657
0.605701
0.618396
0.622153
0.625322
0.625597
0.622868
0.619635
0.607423
0.59798
0.502239
0.513906
0.526667
0.531272
0.534635
0.534993
0.532222
0.528298
0.516193
0.505325
0.409724
0.422067
0.434454
0.439585
0.44298
0.443423
0.440775
0.436489
0.424933
0.413554
0.322848
0.334971
0.346541
0.351831
0.355106
0.355624
0.353242
0.348945
0.338365
0.327324
0.245364
0.256559
0.266925
0.272028
0.275056
0.27563
0.273613
0.269608
0.26035
0.250329
0.179658
0.189439
0.198335
0.202978
0.205668
0.206273
0.204668
0.20118
0.193445
0.184891
0.126618
0.13474
0.142053
0.14606
0.148362
0.148969
0.147776
0.144928
0.138763
0.131862
0.0858197
0.0922523
0.0980166
0.101311
0.103209
0.10379
0.102971
0.100787
0.0961056
0.0908203
0.0558944
0.0607641
0.0651261
0.067716
0.0692273
0.0697592
0.0692481
0.0676746
0.0642911
0.0604387
0.0349494
0.0384803
0.0416537
0.0436074
0.0447707
0.0452367
0.0449586
0.0438964
0.041569
0.0388932
0.0209567
0.0234119
0.025635
0.0270531
0.0279196
0.0283109
0.0281936
0.027525
0.0260032
0.0242303
0.012034
0.0136724
0.015174
0.0161668
0.016792
0.017107
0.0170891
0.0167011
0.0157571
0.014636
0.00660591
0.0076546
0.00863348
0.00930471
0.00974192
0.00998545
0.0100204
0.00981783
0.00926459
0.00858822
0.00345924
0.00410121
0.00471714
0.00515596
0.00545232
0.00563312
0.0056894
0.0055999
0.00529606
0.00490732
0.00172387
0.00209806
0.0024715
0.0027488
0.00294341
0.00307244
0.00313104
0.00310444
0.00295077
0.0027389
0.000815475
0.00102178
0.00123903
0.00140808
0.00153173
0.0016203
0.0016716
0.00167593
0.00160732
0.00149887
0.000365375
0.000472005
0.0005924
0.000691389
0.000767244
0.000825668
0.000866113
0.000882725
0.000859151
0.000808397
0.000154964
0.000205963
0.000268775
0.000324049
0.000368809
0.000405778
0.00043528
0.000454308
0.000452685
0.000432308
6.24688e-05
8.4773e-05
0.000115068
0.000144071
0.00016921
0.000191474
0.000211511
0.000228327
0.000236325
0.000231621
2.39196e-05
3.28022e-05
4.61436e-05
6.02077e-05
7.34261e-05
8.60147e-05
9.8648e-05
0.000111477
0.000122728
0.000125455
8.57213e-06
1.17339e-05
1.69807e-05
2.31114e-05
2.93931e-05
3.58206e-05
4.29524e-05
5.1307e-05
6.28264e-05
7.17583e-05
0.998113
1.00218
0.99845
0.999193
0.999218
0.999217
0.999191
0.998451
1.00221
0.998055
0.987392
0.989189
0.988689
0.990232
0.990307
0.990304
0.990225
0.988696
0.989255
0.987333
0.980023
0.976148
0.979907
0.981052
0.981079
0.981079
0.981057
0.979957
0.976244
0.979918
0.964566
0.958814
0.965193
0.965529
0.965567
0.965574
0.965566
0.96529
0.958942
0.964515
0.935176
0.93059
0.938586
0.938675
0.939056
0.939089
0.938756
0.938754
0.93078
0.935274
0.891434
0.889192
0.89841
0.898867
0.899844
0.899903
0.898985
0.898665
0.88951
0.891772
0.833618
0.834144
0.84434
0.845505
0.847127
0.847211
0.845709
0.844731
0.834689
0.834289
0.762225
0.7656
0.776594
0.778659
0.780865
0.781
0.779018
0.777204
0.766481
0.763349
0.679136
0.68511
0.696726
0.699766
0.702457
0.702661
0.700324
0.697634
0.686431
0.680837
0.587914
0.595935
0.607914
0.611859
0.614912
0.615203
0.612648
0.609197
0.597783
0.5903
0.493276
0.502619
0.514605
0.519238
0.522501
0.522882
0.520276
0.516301
0.505033
0.496414
0.400313
0.410212
0.421769
0.42679
0.430101
0.430564
0.428073
0.423877
0.413161
0.404195
0.313702
0.32344
0.334133
0.339211
0.34242
0.342955
0.340714
0.336608
0.326844
0.31822
0.237052
0.246042
0.255535
0.260363
0.263339
0.263929
0.26203
0.258292
0.249792
0.242022
0.172542
0.180392
0.188467
0.19281
0.195457
0.196076
0.194568
0.19138
0.184329
0.177728
0.120854
0.127371
0.133954
0.137667
0.139928
0.140548
0.139433
0.136878
0.13131
0.126004
0.0813872
0.0865508
0.0916971
0.0947286
0.0965884
0.0971818
0.0964216
0.0944991
0.0903124
0.0862643
0.052649
0.0565649
0.0604279
0.062799
0.0642747
0.0648172
0.0643503
0.0629926
0.059997
0.0570601
0.0326811
0.0355301
0.0383191
0.0401012
0.0412323
0.0417068
0.041461
0.0405644
0.0385268
0.0364968
0.0194397
0.0214306
0.023371
0.0246614
0.0255
0.0258972
0.0258026
0.0252534
0.0239379
0.0225998
0.0110613
0.0123971
0.0137005
0.0146026
0.0152047
0.0155232
0.0155207
0.0152138
0.0144099
0.0135686
0.00600687
0.00686565
0.00771227
0.00832176
0.00874065
0.00898555
0.00903046
0.00887983
0.00841764
0.00791354
0.00310467
0.00363128
0.00416271
0.00456096
0.00484331
0.00502394
0.00508623
0.00502822
0.00478101
0.00449397
0.00152266
0.0018283
0.00214959
0.00240091
0.0025852
0.00271303
0.00277492
0.00276636
0.00264645
0.00249225
0.000706924
0.000872855
0.00105846
0.00121099
0.00132729
0.00141412
0.00146689
0.00148092
0.00143163
0.00135471
0.000310292
0.000393446
0.000494566
0.000582879
0.000653591
0.000710177
0.000750912
0.000772285
0.000759303
0.000725239
0.000129046
0.000166858
0.000217795
0.000265897
0.000307015
0.000342318
0.00037144
0.000392438
0.000396311
0.000384571
5.1368e-05
6.68499e-05
8.98645e-05
0.000113902
0.000136336
0.000157157
0.000176476
0.000193723
0.000204246
0.000203943
1.94054e-05
2.51117e-05
3.44808e-05
4.52812e-05
5.64252e-05
6.77646e-05
7.9581e-05