/*--------------------------------*- C++ -*----------------------------------*\
| =========                 |                                                 |
| \\      /  F ield         | OpenFOAM: The Open Source CFD Toolbox           |
|  \\    /   O peration     | Version:  4.1                                   |
|   \\  /    A nd           | Web:      www.OpenFOAM.org                      |
|    \\/     M anipulation  |                                                 |
\*---------------------------------------------------------------------------*/
FoamFile
{
    version     2.0;
    format      ascii;
    class       volScalarField;
    location    "100";
    object      T;
}
// * * * * * * * * * * * * * * * * * * * * * * * * * * * * * * * * * * * * * //

dimensions      [0 0 0 1 0 0 0];

internalField   nonuniform List<scalar> 
12000
(
0.999583
1.00358
0.999807
1.00054
1.00055
1.00055
1.00053
0.999806
1.00359
0.999558
0.994979
0.996274
0.99554
0.996991
0.997021
0.997014
0.996979
0.995539
0.996307
0.994933
0.999372
0.994202
0.997396
0.998257
0.998159
0.998157
0.99825
0.997414
0.994232
0.999302
1.00385
0.995572
1.00083
1.00049
1.00029
1.00027
1.00049
1.00085
0.99556
1.00374
1.00496
0.996286
1.00237
1.00118
1.00117
1.00107
1.00118
1.00239
0.996229
1.00482
1.00441
0.996219
1.0025
1.00085
1.00118
1.00107
1.00085
1.00249
0.996173
1.00423
1.00371
0.996266
1.00232
1.00037
1.00095
1.00093
1.00035
1.00228
0.996255
1.00349
1.00314
0.996556
1.00214
0.999989
1.00075
1.00079
0.999954
1.00209
0.996577
1.00289
1.00259
0.996884
1.00192
0.999662
1.00054
1.00062
0.999612
1.00184
0.996919
1.00231
1.00208
0.997164
1.00163
0.999363
1.00033
1.00042
0.999312
1.00155
0.997198
1.00175
1.00166
0.997373
1.00134
0.999144
1.00014
1.00023
0.999067
1.00125
0.997411
1.00127
1.00135
0.997551
1.0011
0.999011
0.999983
1.00009
0.998896
1.00101
0.997585
1.0009
1.00117
0.997754
1.0009
0.998942
0.999873
0.999988
0.998808
1.00081
0.997746
1.00064
1.00109
0.997946
1.00075
0.998924
0.999801
0.999921
0.998776
1.00065
0.997891
1.00043
1.00109
0.998131
1.00065
0.998946
0.999761
0.999884
0.998784
1.00053
0.998022
1.00025
1.00117
0.99832
1.00058
0.998998
0.999745
0.999871
0.998822
1.00043
0.99814
1.00011
1.00134
0.998518
1.00052
0.999075
0.99975
0.99988
0.998879
1.00035
0.99824
0.999982
1.0016
0.998743
1.00048
0.999169
0.999772
0.999907
0.998954
1.0003
0.99832
0.999875
1.00191
0.999025
1.00043
0.999274
0.999814
0.999956
0.999049
1.00027
0.998379
0.999775
1.00225
0.99941
1.00036
0.999388
0.999877
1.00004
0.999165
1.00026
0.998417
0.999671
1.00253
0.999902
1.00024
0.99949
0.999956
1.00016
0.999305
1.0003
0.998425
0.999538
1.00254
1.00045
1.00005
0.999539
1.00004
1.00031
0.999478
1.00035
0.998386
0.999329
1.00195
1.00089
0.999686
0.999435
1.00006
1.00046
0.999679
1.00041
0.998265
0.998957
1.00015
1.00076
0.999006
0.998988
0.999862
1.0005
0.999864
1.00046
0.998002
0.998262
0.996081
0.998957
0.997458
0.997738
0.999048
1.00019
0.999926
1.0005
0.997521
0.996858
0.987453
0.993232
0.993789
0.994759
0.996803
0.998906
0.999499
1.0004
0.996806
0.994232
0.968553
0.979346
0.985225
0.988131
0.991651
0.995566
0.997984
1.00015
0.996435
0.988779
0.944155
0.960985
0.970793
0.975683
0.981238
0.987739
0.993211
0.998269
0.998409
0.98192
0.912163
0.932406
0.945621
0.953488
0.962654
0.973037
0.983942
0.993739
1.01026
0.973909
0.857633
0.874793
0.895766
0.912189
0.926616
0.939566
0.956044
0.967078
1.03436
1.0264
1.00359
1.00675
1.00301
1.00391
1.00387
1.00387
1.00391
1.00301
1.00679
1.00354
0.996298
0.996863
0.996392
0.998265
0.998221
0.998219
0.99825
0.996387
0.996959
0.99624
0.994235
0.98974
0.992956
0.993843
0.993639
0.993629
0.993825
0.99297
0.989826
0.994131
0.995617
0.987826
0.993448
0.992816
0.99245
0.99245
0.992795
0.993474
0.987909
0.995468
0.996341
0.987434
0.994339
0.992675
0.992441
0.992501
0.992655
0.994364
0.987536
0.996152
0.996289
0.987519
0.994654
0.992459
0.992628
0.99271
0.992432
0.994668
0.987594
0.9961
0.996358
0.988188
0.994892
0.992426
0.993038
0.993084
0.992389
0.994891
0.988212
0.996185
0.996679
0.989334
0.995353
0.992736
0.993675
0.993693
0.992687
0.995322
0.989299
0.996501
0.997048
0.990589
0.995896
0.993258
0.994389
0.994402
0.993189
0.995847
0.990509
0.996832
0.997382
0.991706
0.996379
0.99382
0.995045
0.995067
0.993727
0.996308
0.991606
0.997084
0.997659
0.992694
0.996788
0.994352
0.995607
0.995644
0.994246
0.996688
0.992571
0.997263
0.99792
0.993586
0.997137
0.99486
0.996091
0.996143
0.994747
0.997011
0.993425
0.997413
0.998232
0.99434
0.997447
0.99535
0.996512
0.996581
0.995217
0.997297
0.994152
0.997556
0.998558
0.994991
0.997733
0.995819
0.996883
0.99697
0.995658
0.997555
0.994768
0.997682
0.9989
0.99557
0.99798
0.996257
0.997209
0.997315
0.996067
0.997782
0.99528
0.997811
0.999267
0.996089
0.998201
0.996663
0.997499
0.997622
0.996445
0.997983
0.995692
0.997947
0.99965
0.996577
0.998401
0.997037
0.997758
0.997898
0.996793
0.998169
0.996032
0.99805
1.00003
0.99705
0.99858
0.997375
0.997989
0.998148
0.997111
0.998342
0.996308
0.998102
1.00041
0.997516
0.998721
0.997674
0.998193
0.998372
0.997394
0.998498
0.996517
0.998095
1.00074
0.997966
0.998794
0.997918
0.998367
0.998569
0.997644
0.998623
0.996649
0.998014
1.00095
0.998409
0.998779
0.998085
0.9985
0.998732
0.997854
0.9987
0.996681
0.997827
1.00083
0.998818
0.99865
0.998138
0.998565
0.998845
0.998012
0.998717
0.996576
0.997478
1.0002
0.999066
0.998332
0.998005
0.998508
0.998872
0.998094
0.998647
0.996275
0.996857
0.998628
0.998865
0.997673
0.997522
0.998189
0.998719
0.998052
0.998447
0.99569
0.995779
0.995249
0.997491
0.996272
0.996335
0.997315
0.998192
0.997791
0.998082
0.994702
0.993834
0.988188
0.993295
0.993156
0.993682
0.995239
0.996821
0.997031
0.997475
0.99326
0.990489
0.973973
0.983041
0.986172
0.988086
0.990832
0.993781
0.995315
0.996634
0.991782
0.984066
0.951127
0.965006
0.972905
0.977274
0.981977
0.987068
0.990964
0.994574
0.992329
0.975855
0.915658
0.93483
0.948848
0.957816
0.966042
0.974283
0.982445
0.989797
1.00113
0.964746
0.865823
0.88534
0.904769
0.921208
0.935158
0.946779
0.960247
0.968613
1.02495
1.0063
0.999819
1.00301
0.998896
0.999618
0.999577
0.999576
0.999614
0.998897
1.00306
0.999753
0.99557
0.996402
0.996001
0.997902
0.997907
0.9979
0.997879
0.995984
0.996495
0.9955
0.997443
0.992971
0.996511
0.997542
0.997367
0.997353
0.997516
0.99653
0.993067
0.997308
1.00089
0.993464
0.999435
0.998787
0.998441
0.998433
0.998761
0.999463
0.993525
1.00074
1.00244
0.994355
1.00165
0.999837
0.999728
0.999735
0.999809
1.00167
0.99438
1.00229
1.00257
0.994671
1.00229
0.999948
1.00038
1.00037
0.999918
1.0023
0.99466
1.00242
1.0024
0.994906
1.00219
0.999594
1.00053
1.00051
0.999563
1.00219
0.994867
1.00223
1.00224
0.995356
1.00201
0.999272
1.00055
1.00052
0.999244
1.00201
0.995289
1.00204
1.00203
0.995891
1.00186
0.999089
1.00056
1.00054
0.999053
1.00184
0.995789
1.00183
1.00177
0.996365
1.00168
0.998968
1.00052
1.00052
0.998915
1.00164
0.996243
1.00153
1.00152
0.996758
1.00145
0.998866
1.00043
1.00046
0.9988
1.00139
0.996626
1.0012
1.00133
0.99709
1.00121
0.998798
1.00032
1.00036
0.998716
1.00114
0.996951
1.00092
1.00122
0.997368
1.001
0.998771
1.0002
1.00026
0.99867
1.00091
0.997232
1.00068
1.00116
0.997618
1.00082
0.99878
1.00009
1.00017
0.998658
1.0007
0.99747
1.00049
1.00117
0.99784
1.00065
0.998813
0.999988
1.0001
0.998669
1.00052
0.997663
1.00032
1.00125
0.998037
1.0005
0.998861
0.999902
1.00003
0.998698
1.00037
0.997818
1.00017
1.00138
0.998228
1.00037
0.99892
0.999832
0.999981
0.99874
1.00025
0.997941
1.00002
1.00156
0.998432
1.00025
0.998985
0.999776
0.999945
0.998789
1.00015
0.998039
0.999869
1.00176
0.998656
1.00014
0.999046
0.999733
0.999921
0.998842
1.00008
0.998104
0.999694
1.00193
0.998897
1.00001
0.999086
0.999694
0.999906
0.998894
1.00001
0.998115
0.99949
1.00201
0.999157
0.999822
0.999084
0.999646
0.999891
0.998937
0.999934
0.998053
0.99922
1.00184
0.999401
0.999544
0.998997
0.999565
0.999862
0.99896
0.999839
0.997884
0.998822
1.00117
0.999502
0.999098
0.998751
0.999396
0.999788
0.998945
0.999697
0.997554
0.998191
0.999522
0.999155
0.998329
0.998196
0.999019
0.999593
0.998856
0.999476
0.99698
0.997147
0.99613
0.997709
0.996862
0.99703
0.998191
0.99912
0.998627
0.99916
0.996053
0.995291
0.989645
0.993882
0.993877
0.994638
0.99641
0.998009
0.99806
0.998729
0.994744
0.99211
0.977942
0.985651
0.987919
0.989953
0.992844
0.995668
0.996869
0.998329
0.993558
0.985987
0.959176
0.970789
0.976861
0.981221
0.985942
0.990653
0.99387
0.997379
0.994773
0.978164
0.930955
0.946309
0.957707
0.966286
0.974083
0.98147
0.988378
0.995171
1.00543
0.967938
0.889796
0.907538
0.925087
0.939646
0.951553
0.961073
0.972225
0.978819
1.03351
1.00997
1.00055
1.00392
0.999619
1.00039
1.00036
1.00036
1.00039
0.999617
1.00397
1.00048
0.997023
0.998278
0.997906
1.00002
1.00004
1.00003
0.999995
0.997886
0.998374
0.996951
0.998313
0.993861
0.997549
0.998832
0.998652
0.998637
0.998803
0.997569
0.993956
0.998164
1.00058
0.992831
0.99879
0.998236
0.997847
0.997835
0.998211
0.998818
0.99288
1.00041
1.00126
0.992704
0.999842
0.997964
0.997795
0.997792
0.99794
0.999865
0.992719
1.00109
1.00093
0.992491
0.999946
0.997422
0.997786
0.997792
0.997396
0.99996
0.99251
1.00072
1.00047
0.992435
0.999585
0.996721
0.997589
0.997602
0.996691
0.99958
0.992455
1.00023
1.0001
0.992728
0.999262
0.996193
0.997394
0.997415
0.996157
0.999234
0.992718
0.999864
0.99978
0.993226
0.999074
0.995934
0.997323
0.997358
0.995888
0.999031
0.993192
0.999526
0.999513
0.993763
0.998947
0.995863
0.997339
0.997392
0.995799
0.998886
0.99372
0.999197
0.999327
0.994278
0.998843
0.995901
0.997388
0.997459
0.995812
0.998765
0.994232
0.998924
0.999234
0.994774
0.998773
0.996022
0.997458
0.997547
0.995908
0.998683
0.994723
0.998719
0.999236
0.99525
0.998743
0.99621
0.997553
0.997663
0.996072
0.998645
0.99518
0.998586
0.999316
0.995703
0.998748
0.996447
0.997673
0.997805
0.996284
0.99864
0.99559
0.998522
0.999465
0.996129
0.998775
0.996712
0.997809
0.99796
0.996524
0.998656
0.995951
0.998506
0.999669
0.996532
0.99882
0.996991
0.997951
0.998122
0.996775
0.998693
0.996272
0.998503
0.999919
0.996921
0.998876
0.997271
0.998098
0.998286
0.997027
0.998746
0.996556
0.998496
1.00021
0.997299
0.998929
0.997542
0.998245
0.998449
0.997273
0.998807
0.996794
0.998474
1.00051
0.997675
0.998967
0.997793
0.998385
0.998605
0.997506
0.99887
0.996977
0.998424
1.00081
0.998057
0.998971
0.998007
0.998513
0.998752
0.99772
0.998926
0.997092
0.998325
1.00101
0.998446
0.998916
0.99816
0.998618
0.998883
0.997908
0.998965
0.997119
0.998142
1.00099
0.998814
0.998775
0.998221
0.998681
0.998989
0.998064
0.998971
0.997026
0.997824
1.00054
0.999063
0.998483
0.998129
0.998665
0.999051
0.998181
0.998927
0.996769
0.997269
0.99924
0.998933
0.997922
0.997768
0.998483
0.999023
0.998244
0.998824
0.996276
0.996316
0.996414
0.997863
0.996782
0.996907
0.997962
0.998807
0.998237
0.998692
0.995481
0.994606
0.990925
0.994797
0.994415
0.995094
0.996741
0.998166
0.998056
0.99859
0.994425
0.991678
0.981038
0.988075
0.98966
0.991536
0.994229
0.996701
0.997568
0.9988
0.99375
0.986069
0.964714
0.975423
0.980562
0.984708
0.989077
0.993147
0.995723
0.998845
0.99584
0.978971
0.939333
0.953771
0.964265
0.972457
0.979565
0.985872
0.991732
0.997951
1.00789
0.970229
0.901291
0.918575
0.935553
0.948912
0.959013
0.966584
0.976215
0.981906
1.03693
1.01271
1.00057
1.00387
0.999579
1.00036
1.00032
1.00032
1.00035
0.999575
1.00393
1.0005
0.997055
0.998238
0.997916
1.00005
1.00006
1.00005
1.00002
0.997895
0.998342
0.996983
0.998222
0.993664
0.997382
0.998663
0.998457
0.998441
0.998629
0.997401
0.993764
0.998076
1.00035
0.992506
0.99847
0.997865
0.997436
0.997422
0.997836
0.998493
0.992547
1.00019
1.00116
0.992564
0.999768
0.997822
0.997618
0.997612
0.997794
0.999784
0.992567
1.001
1.00116
0.992774
1.0004
0.997822
0.998182
0.998182
0.997792
1.0004
0.99277
1.00096
1.00099
0.993158
1.00054
0.997635
0.998539
0.998544
0.997599
1.00051
0.993131
1.00079
1.00084
0.993764
1.00054
0.997455
0.998724
0.998738
0.997409
1.0005
0.993697
1.00065
1.0007
0.99444
1.00054
0.997399
0.998881
0.99891
0.997341
1.00049
0.994359
1.00047
1.00055
0.995066
1.0005
0.997432
0.999018
0.999066
0.997354
1.00044
0.994984
1.00026
1.00043
0.995602
1.00041
0.997495
0.999103
0.999172
0.997394
1.00035
0.995532
1.00004
1.00035
0.996067
1.00029
0.997578
0.999141
0.999233
0.997454
1.00024
0.995997
0.999853
1.00033
0.996479
1.00019
0.99769
0.999162
0.999274
0.997542
1.00013
0.996384
0.999723
1.00035
0.996848
1.0001
0.997828
0.999179
0.999316
0.997658
1.00003
0.996715
0.999623
1.00043
0.997178
1.00002
0.997982
0.9992
0.99936
0.99779
0.999948
0.996997
0.999539
1.00057
0.997476
0.999946
0.998142
0.999221
0.999402
0.997928
0.999876
0.997237
0.99946
1.00075
0.997754
0.999882
0.998302
0.999244
0.999445
0.998067
0.999817
0.997437
0.999378
1.00096
0.998023
0.999819
0.998454
0.999267
0.999485
0.998202
0.99977
0.997593
0.999283
1.0012
0.998296
0.999748
0.99859
0.999286
0.999524
0.998328
0.999731
0.9977
0.999163
1.00142
0.998584
0.999654
0.9987
0.9993
0.999559
0.998442
0.999692
0.997746
0.998998
1.00157
0.998896
0.999518
0.998764
0.999302
0.999587
0.998538
0.999643
0.997714
0.998759
1.00154
0.999213
0.999313
0.998756
0.999277
0.999603
0.998612
0.999572
0.997571
0.998392
1.00113
0.999448
0.998979
0.99862
0.999194
0.999593
0.998663
0.999467
0.997273
0.997802
0.999952
0.999367
0.998405
0.998248
0.998979
0.999521
0.998682
0.999322
0.996759
0.996831
0.997382
0.998454
0.997313
0.997436
0.998484
0.99931
0.998668
0.999178
0.995969
0.99513
0.992338
0.995731
0.99511
0.995765
0.997384
0.998751
0.998537
0.999109
0.994956
0.992244
0.983108
0.989609
0.990712
0.992488
0.995113
0.997464
0.998165
0.999398
0.994362
0.986688
0.967377
0.977659
0.982166
0.986098
0.99032
0.994178
0.996502
0.999552
0.996548
0.979601
0.942248
0.956557
0.966501
0.974347
0.98118
0.987177
0.992712
0.998745
1.00868
0.970596
0.904729
0.921992
0.938684
0.951471
0.96102
0.968123
0.977393
0.982712
1.03784
1.01289
1.00057
1.00387
0.999579
1.00036
1.00032
1.00032
1.00035
0.999576
1.00393
1.0005
0.997054
0.998237
0.997915
1.00005
1.00006
1.00004
1.00002
0.997895
0.998339
0.99698
0.998223
0.993661
0.997379
0.998659
0.998451
0.998437
0.998627
0.9974
0.99376
0.998073
1.00035
0.992499
0.998467
0.997861
0.99743
0.997417
0.997832
0.998491
0.992543
1.00019
1.00117
0.992555
0.999769
0.99782
0.997616
0.997606
0.997791
0.999784
0.992566
1.001
1.00117
0.992766
1.0004
0.997821
0.99818
0.998176
0.99779
1.0004
0.992768
1.00096
1.00103
0.993138
1.00053
0.997631
0.998535
0.99854
0.997598
1.00051
0.993126
1.00079
1.00089
0.99373
1.00054
0.997446
0.998718
0.998733
0.997405
1.0005
0.993691
1.00066
1.00074
0.994414
1.00054
0.997388
0.998874
0.998905
0.997335
1.00049
0.994359
1.00047
1.00055
0.995055
1.00051
0.997419
0.999013
0.999062
0.997349
1.00044
0.994995
1.00023
1.00041
0.995601
1.00042
0.997482
0.999097
0.999168
0.99739
1.00035
0.995543
1.00002
1.00033
0.996066
1.00031
0.997565
0.999133
0.999228
0.997449
1.00023
0.996003
0.999841
1.0003
0.996477
1.0002
0.997676
0.999151
0.999268
0.997535
1.00012
0.996386
0.999724
1.00032
0.996844
1.0001
0.997813
0.999166
0.999307
0.997647
1.00001
0.99671
0.99964
1.00041
0.997167
1.00002
0.997964
0.999184
0.999347
0.997773
0.999918
0.996988
0.99956
1.00053
0.99746
0.999939
0.998121
0.999202
0.999385
0.997905
0.999844
0.997227
0.99947
1.0007
0.997732
0.999867
0.998276
0.99922
0.999422
0.99804
0.999784
0.997427
0.999372
1.00091
0.997994
0.999796
0.998422
0.999235
0.999456
0.998171
0.999733
0.997582
0.999268
1.00114
0.998258
0.999714
0.998551
0.999247
0.999486
0.998291
0.999687
0.997683
0.999142
1.00135
0.998536
0.999608
0.998651
0.999252
0.999512
0.998399
0.999639
0.99772
0.998975
1.00149
0.998833
0.999455
0.998704
0.999243
0.999529
0.998488
0.99958
0.997675
0.99873
1.00144
0.999132
0.999231
0.99868
0.999203
0.99953
0.998551
0.999494
0.997516
0.998354
1.00099
0.999344
0.998875
0.998522
0.999097
0.999496
0.998582
0.999367
0.997195
0.997751
0.999762
0.999225
0.998272
0.998119
0.998849
0.99939
0.998571
0.999194
0.996648
0.996759
0.997099
0.998246
0.997134
0.997258
0.998305
0.999131
0.998512
0.999009
0.995814
0.99502
0.991931
0.995416
0.994858
0.995519
0.997135
0.998502
0.998312
0.998877
0.994743
0.992081
0.982592
0.989163
0.990353
0.992143
0.99476
0.99711
0.997837
0.999064
0.994058
0.986438
0.966818
0.97709
0.981682
0.985636
0.989846
0.993698
0.996053
0.999106
0.996152
0.979299
0.9418
0.955928
0.965853
0.973698
0.980508
0.986483
0.992038
0.998081
1.00806
0.970104
0.904179
0.921263
0.937912
0.950726
0.960278
0.96738
0.976686
0.982066
1.03729
1.01266
1.00055
1.00391
0.999618
1.00039
1.00036
1.00035
1.00039
0.999613
1.00397
1.00048
0.997022
0.998268
0.997893
1.00001
1.00003
1.00002
0.999978
0.997871
0.998366
0.996939
0.998309
0.993857
0.997541
0.998822
0.998636
0.998623
0.99879
0.997558
0.993946
0.998167
1.0006
0.99282
0.998788
0.998232
0.997838
0.997826
0.998209
0.998818
0.99287
1.00042
1.00133
0.992657
0.999843
0.997963
0.997794
0.997786
0.997944
0.999869
0.992706
1.00111
1.001
0.992435
0.999961
0.997422
0.997792
0.997787
0.997401
0.999959
0.992461
1.00079
1.00049
0.992402
0.999611
0.996719
0.997598
0.9976
0.996692
0.999579
0.992383
1.0003
1.00008
0.992716
0.999295
0.996191
0.997405
0.997418
0.996152
0.999241
0.992658
0.999893
0.999747
0.993228
0.999106
0.995931
0.997336
0.997363
0.995878
0.99904
0.993146
0.999524
0.999471
0.993771
0.998973
0.995856
0.997351
0.997396
0.995784
0.998898
0.993677
0.999188
0.999284
0.99429
0.99886
0.995891
0.997396
0.99746
0.995797
0.998785
0.99419
0.998906
0.999197
0.99479
0.998782
0.996009
0.997462
0.997548
0.99589
0.998706
0.994679
0.998696
0.999198
0.995268
0.998747
0.996197
0.997553
0.997662
0.996051
0.998674
0.995137
0.998556
0.999275
0.995718
0.998747
0.996434
0.997668
0.9978
0.99626
0.998676
0.995555
0.998477
0.999419
0.996139
0.998765
0.996696
0.997798
0.997951
0.996495
0.998693
0.995923
0.998447
0.999616
0.996534
0.998797
0.996967
0.997935
0.998108
0.99674
0.998723
0.996248
0.998437
0.999856
0.996912
0.998838
0.997239
0.998075
0.998268
0.996987
0.998768
0.996532
0.998423
1.00013
0.997275
0.998879
0.997501
0.998212
0.998425
0.99723
0.998819
0.99677
0.998396
1.00041
0.997634
0.998904
0.99774
0.998342
0.998575
0.997459
0.99887
0.996952
0.998348
1.00067
0.997992
0.998892
0.99794
0.998457
0.998713
0.99767
0.998915
0.997064
0.998253
1.00083
0.998347
0.998817
0.998078
0.998546
0.998833
0.997855
0.998943
0.997088
0.998069
1.00075
0.998668
0.998649
0.998117
0.998589
0.99892
0.998
0.998931
0.996987
0.997746
1.0002
0.998844
0.998315
0.997991
0.998538
0.998949
0.998094
0.998864
0.996711
0.99718
0.998742
0.998594
0.997676
0.997567
0.998295
0.998862
0.998112
0.99872
0.996181
0.996206
0.99566
0.997306
0.996395
0.996595
0.997668
0.998547
0.998017
0.998512
0.99532
0.994442
0.989786
0.993894
0.993784
0.994588
0.99627
0.997738
0.997682
0.998277
0.994159
0.991419
0.979498
0.986727
0.988652
0.99071
0.993468
0.995998
0.996935
0.998243
0.993285
0.98561
0.962892
0.973627
0.979088
0.983456
0.98793
0.992087
0.994761
0.997977
0.995163
0.978392
0.93733
0.951459
0.962078
0.970478
0.977739
0.984162
0.990126
0.996407
1.0066
0.96903
0.898602
0.915622
0.93267
0.946325
0.956736
0.964572
0.974409
0.980249
1.03573
1.01238
0.999819
1.00301
0.998896
0.999618
0.999577
0.999575
0.999611
0.998892
1.00306
0.999752
0.995571
0.996399
0.995985
0.997885
0.997892
0.997885
0.997858
0.995966
0.996493
0.995494
0.997459
0.992984
0.996529
0.99756
0.997384
0.997373
0.997534
0.996551
0.993088
0.997328
1.00092
0.993464
0.999457
0.998806
0.998463
0.998453
0.998784
0.999488
0.993524
1.00077
1.00246
0.994336
1.00167
0.999848
0.999745
0.999735
0.999828
1.00168
0.994349
1.00233
1.00258
0.994638
1.00229
0.99994
1.00036
1.00036
0.999923
1.00231
0.994619
1.00244
1.00239
0.994868
1.00218
0.999569
1.00048
1.00048
0.999543
1.00219
0.99484
1.00221
1.00221
0.995321
1.00199
0.999243
1.00047
1.00049
0.9992
1.00199
0.995266
1.00201
1.00199
0.995857
1.00183
0.999052
1.00047
1.0005
0.998992
1.00181
0.995763
1.00179
1.00174
0.996327
1.00163
0.998928
1.00043
1.00047
0.998846
1.00159
0.996205
1.0015
1.00149
0.996721
1.0014
0.998831
1.00034
1.0004
0.998726
1.00135
0.996573
1.00119
1.00128
0.997054
1.00116
0.998768
1.00023
1.0003
0.998636
1.0011
0.996892
1.0009
1.00117
0.997329
1.00095
0.998747
1.00011
1.00021
0.99859
1.00088
0.997175
1.00066
1.00111
0.997573
1.00077
0.998756
1
1.00012
0.998578
1.00067
0.997417
1.00046
1.00112
0.997786
1.00059
0.998783
0.999905
1.00004
0.998591
1.00049
0.997615
1.00027
1.00118
0.997985
1.00044
0.998821
0.99982
0.999968
0.998618
1.00034
0.997773
1.00012
1.00129
0.99818
1.0003
0.99887
0.999749
0.999913
0.998658
1.0002
0.997902
0.999967
1.00145
0.998368
1.00017
0.998921
0.999688
0.999871
0.998707
1.00009
0.997999
0.999813
1.00161
0.998564
1.00004
0.998964
0.999635
0.99984
0.998758
1.00001
0.998058
0.999642
1.00174
0.998771
0.999886
0.998984
0.999582
0.999815
0.998806
0.999927
0.998064
0.999433
1.00175
0.998989
0.999673
0.998958
0.999515
0.999787
0.998842
0.999844
0.997997
0.999151
1.00148
0.999177
0.999353
0.998837
0.999401
0.999733
0.998847
0.999731
0.997815
0.998735
1.00067
0.99919
0.998845
0.998536
0.99918
0.99961
0.998797
0.999555
0.997458
0.998075
0.998793
0.998684
0.99796
0.997877
0.998706
0.999322
0.998635
0.999269
0.996823
0.996978
0.995022
0.996929
0.996267
0.99651
0.997692
0.998673
0.998261
0.998829
0.995786
0.99502
0.987879
0.992556
0.992883
0.993763
0.995579
0.997252
0.997424
0.998172
0.994285
0.991665
0.975358
0.983543
0.986293
0.988497
0.991468
0.994396
0.995762
0.997351
0.992752
0.985184
0.955912
0.967845
0.974484
0.979027
0.983824
0.988655
0.992079
0.995768
0.99348
0.976998
0.92628
0.941791
0.953869
0.962834
0.970807
0.978316
0.985409
0.992337
1.00308
0.965594
0.882991
0.900766
0.919058
0.934325
0.946829
0.956859
0.968429
0.975237
1.03072
1.00873
1.0036
1.00678
1.00306
1.00396
1.00392
1.00392
1.00396
1.00306
1.00684
1.00355
0.996318
0.996946
0.996476
0.99835
0.99831
0.998303
0.998332
0.996472
0.99707
0.996278
0.994239
0.989818
0.993041
0.993916
0.993711
0.993703
0.9939
0.993062
0.989941
0.994165
0.99561
0.987859
0.99348
0.992835
0.992484
0.992477
0.992815
0.993496
0.987912
0.995507
0.996332
0.987419
0.994325
0.992664
0.992495
0.992484
0.99264
0.99433
0.987416
0.996197
0.996276
0.987475
0.994607
0.992421
0.992675
0.992664
0.99241
0.994608
0.987419
0.996113
0.996341
0.988129
0.994827
0.992359
0.99303
0.993033
0.992356
0.994822
0.988039
0.996147
0.996656
0.989271
0.99528
0.992657
0.99362
0.993635
0.992635
0.995263
0.989154
0.996425
0.997018
0.990527
0.995823
0.993166
0.994307
0.994333
0.993122
0.995793
0.990388
0.996743
0.997323
0.991671
0.996312
0.993723
0.994954
0.994988
0.993656
0.99626
0.991502
0.996995
0.997585
0.992681
0.996718
0.994265
0.995518
0.995564
0.994178
0.996645
0.992464
0.997188
0.997865
0.993557
0.997057
0.994783
0.996002
0.996067
0.994671
0.996975
0.993303
0.997351
0.998183
0.994296
0.997356
0.995277
0.996421
0.996506
0.995139
0.997276
0.994037
0.997486
0.998494
0.994941
0.997633
0.995745
0.996786
0.996892
0.995578
0.997532
0.99467
0.997599
0.998816
0.99551
0.997876
0.996178
0.997107
0.997232
0.995983
0.997748
0.99519
0.997723
0.999149
0.996022
0.99809
0.996572
0.997389
0.997533
0.996356
0.997945
0.995604
0.997857
0.999481
0.996498
0.998279
0.996932
0.997637
0.9978
0.996697
0.99812
0.995945
0.997954
0.999822
0.99694
0.998433
0.997251
0.997853
0.998035
0.997003
0.998273
0.996221
0.997998
1.00015
0.997355
0.998533
0.997519
0.998035
0.998238
0.997273
0.998398
0.996425
0.997982
1.00044
0.997747
0.998559
0.997728
0.99818
0.998409
0.997503
0.99849
0.996547
0.997892
1.00058
0.998127
0.99849
0.997858
0.998278
0.99854
0.997688
0.998538
0.996564
0.997692
1.00039
0.998479
0.998303
0.997867
0.998298
0.998609
0.997813
0.998522
0.996439
0.997326
0.999653
0.998672
0.997922
0.997669
0.998179
0.998573
0.997849
0.998407
0.996112
0.996682
0.997887
0.998361
0.997175
0.99708
0.997761
0.998325
0.997729
0.998145
0.99548
0.995574
0.994034
0.996676
0.995576
0.99568
0.99669
0.99763
0.997335
0.997681
0.994421
0.993577
0.985776
0.991626
0.992011
0.992642
0.994265
0.995966
0.99634
0.996906
0.99286
0.99015
0.970176
0.98013
0.984212
0.986363
0.989244
0.992406
0.994196
0.995744
0.99119
0.983539
0.946826
0.961548
0.970315
0.97486
0.979614
0.984878
0.989093
0.993049
0.99137
0.975164
0.908988
0.929034
0.94418
0.95367
0.962164
0.970562
0.979041
0.986885
0.99943
0.963137
0.856543
0.876195
0.896081
0.913132
0.927965
0.940331
0.954532
0.96345
1.02194
1.00592
0.999563
1.00354
0.999752
1.00048
1.00049
1.00049
1.00047
0.999751
1.00356
0.999502
0.994941
0.996229
0.995482
0.996924
0.996953
0.996949
0.996911
0.995479
0.996282
0.994863
0.999324
0.994121
0.997298
0.99815
0.998051
0.998044
0.998137
0.99732
0.994179
0.999164
1.0038
0.995502
1.00075
1.00041
1.00017
1.00017
1.00041
1.00078
0.99554
1.00362
1.00493
0.996245
1.00232
1.00113
1.00101
1.00102
1.00113
1.00236
0.996251
1.00477
1.00438
0.99621
1.00248
1.00084
1.00105
1.00106
1.00081
1.00249
0.996185
1.00424
1.00369
0.996285
1.00233
1.0004
1.00092
1.00092
1.00034
1.00231
0.996246
1.00355
1.00313
0.996594
1.00217
1.00003
1.00079
1.00079
0.999977
1.00211
0.996553
1.00296
1.00259
0.996935
1.00196
0.999713
1.00062
1.00063
0.999662
1.00187
0.996901
1.00238
1.00208
0.997196
1.00168
0.99942
1.00042
1.00045
0.999369
1.00157
0.997187
1.00181
1.00165
0.997394
1.0014
0.999184
1.00022
1.00027
0.999124
1.00127
0.997414
1.00132
1.00134
0.997593
1.00115
0.999036
1.00007
1.00012
0.998962
1.00101
0.997598
1.00095
1.00116
0.997805
1.00095
0.99896
0.999955
1.00002
0.99887
1.00079
0.997746
1.00067
1.00107
0.997991
1.0008
0.998939
0.999882
0.99995
0.998832
1.00063
0.997882
1.00045
1.00107
0.998169
1.00068
0.998961
0.999837
0.999915
0.998834
1.00052
0.998015
1.00027
1.00115
0.998344
1.0006
0.999013
0.999813
0.999902
0.998863
1.00042
0.998134
1.00013
1.0013
0.998523
1.00054
0.999086
0.999808
0.999912
0.998915
1.00036
0.998236
1.00001
1.00154
0.998737
1.00048
0.999174
0.999824
0.999948
0.998992
1.00033
0.99832
0.999911
1.00182
0.999015
1.00042
0.999275
0.999862
1.00001
0.999095
1.00033
0.998392
0.999823
1.00211
0.99939
1.00032
0.999379
0.999921
1.0001
0.999223
1.00035
0.998447
0.999731
1.0023
0.999853
1.00016
0.999455
0.999994
1.00022
0.999376
1.0004
0.998473
0.999608
1.00214
1.00033
0.999913
0.999455
1.00005
1.00036
0.999553
1.00046
0.998451
0.999409
1.00125
1.00061
0.999462
0.999265
1.00001
1.00047
0.999735
1.00052
0.998341
0.999041
0.998892
1.00011
0.998581
0.998647
0.999645
1.00041
0.999858
1.00054
0.998076
0.998339
0.993815
0.997534
0.996603
0.997044
0.998492
0.99984
0.999763
1.00049
0.997572
0.996913
0.982729
0.990073
0.991999
0.993383
0.995645
0.998086
0.999014
1.00019
0.996776
0.994223
0.96256
0.974923
0.982225
0.985627
0.989451
0.993866
0.996848
0.999521
0.996272
0.988685
0.939979
0.958045
0.9674
0.972113
0.977856
0.984817
0.990968
0.996769
0.997866
0.981751
0.90432
0.925084
0.939418
0.94735
0.956859
0.967804
0.979586
0.990462
1.00928
0.974042
0.84696
0.860708
0.881355
0.899863
0.916508
0.931175
0.948783
0.960457
1.0314
1.02888
0.814576
0.825327
0.844136
0.865054
0.884501
0.900483
0.921379
0.928809
1.00565
1.02916
0.791577
0.800099
0.818147
0.839348
0.859524
0.87637
0.898714
0.90754
0.979562
1.04688
0.766999
0.774108
0.791533
0.811871
0.831353
0.847697
0.86989
0.882543
0.944954
1.04931
0.741337
0.747189
0.764242
0.783013
0.800696
0.81555
0.835853
0.851697
0.903428
1.0214
0.714924
0.719469
0.736188
0.753032
0.76847
0.781165
0.798256
0.814826
0.855453
0.971444
0.688019
0.691077
0.707266
0.721713
0.734346
0.744353
0.757791
0.773638
0.803457
0.908869
0.660796
0.662166
0.677342
0.688995
0.698484
0.705328
0.714658
0.728622
0.749757
0.839575
0.633344
0.632869
0.646423
0.654993
0.66117
0.664645
0.669799
0.680619
0.695005
0.767215
0.605716
0.603401
0.614744
0.620047
0.622618
0.62239
0.623055
0.629924
0.638598
0.694445
0.578055
0.574022
0.58262
0.584277
0.582388
0.577726
0.573646
0.576265
0.579939
0.621349
0.550471
0.544757
0.549969
0.547184
0.540138
0.530791
0.522399
0.52076
0.520186
0.549138
0.52285
0.51537
0.516351
0.508462
0.496398
0.482807
0.470738
0.465146
0.461026
0.479779
0.494932
0.485562
0.481739
0.468776
0.45226
0.435063
0.419956
0.41101
0.404042
0.414856
0.466479
0.455228
0.44661
0.42907
0.408731
0.388595
0.371161
0.359628
0.350515
0.355492
0.437427
0.424538
0.411498
0.389987
0.366489
0.34414
0.325093
0.311739
0.301089
0.301939
0.408013
0.393724
0.376733
0.351924
0.325977
0.30213
0.282106
0.267567
0.255819
0.253729
0.378434
0.362925
0.342541
0.31514
0.287464
0.262765
0.242272
0.226991
0.2144
0.210061
0.348733
0.332277
0.309108
0.279829
0.251123
0.226124
0.205529
0.18979
0.176561
0.170489
0.319003
0.301933
0.276622
0.246163
0.217105
0.192259
0.171881
0.155931
0.142296
0.134624
0.289441
0.272093
0.245294
0.214343
0.185546
0.16129
0.141329
0.125198
0.111384
0.102371
0.260327
0.24299
0.215362
0.184575
0.156592
0.133172
0.113723
0.097705
0.0841826
0.0743748
0.231987
0.214887
0.187074
0.157036
0.130306
0.107885
0.0892987
0.0739314
0.0612743
0.0513271
0.204766
0.188064
0.160661
0.131893
0.106687
0.0856126
0.0683451
0.0541954
0.0428934
0.0336512
0.178984
0.162798
0.136316
0.109284
0.0858416
0.0664894
0.0509692
0.038518
0.0289099
0.0210409
0.154913
0.139336
0.11421
0.089204
0.0678116
0.050517
0.0370798
0.0265992
0.0188086
0.0126071
0.132758
0.117876
0.094466
0.0716584
0.0525617
0.0375748
0.0263745
0.017895
0.0118525
0.00729025
0.112658
0.0985382
0.0771231
0.0566347
0.0399934
0.0274138
0.0183916
0.0117634
0.00726864
0.00410622
0.0946713
0.0813871
0.0620945
0.0440369
0.0299123
0.0196657
0.0126073
0.00758324
0.00436305
0.00226792
0.0787809
0.066468
0.0492903
0.0337046
0.0220204
0.0138993
0.00851649
0.00481794
0.00258009
0.00123075
0.0649181
0.0537627
0.0385947
0.0254198
0.0159947
0.00971861
0.00570277
0.00305092
0.00152476
0.000664701
0.82707
0.842841
0.863255
0.883016
0.901076
0.915618
0.933551
0.938791
1.00645
1.00551
0.805888
0.8196
0.840742
0.861547
0.880552
0.895909
0.915711
0.921636
0.986992
1.01784
0.782199
0.794277
0.816384
0.838
0.857339
0.872609
0.89285
0.901874
0.960648
1.0246
0.75673
0.76682
0.78972
0.811834
0.831292
0.846202
0.865365
0.877376
0.927726
1.01116
0.729986
0.737531
0.760929