/*--------------------------------*- C++ -*----------------------------------*\
| =========                 |                                                 |
| \\      /  F ield         | OpenFOAM: The Open Source CFD Toolbox           |
|  \\    /   O peration     | Version:  4.1                                   |
|   \\  /    A nd           | Web:      www.OpenFOAM.org                      |
|    \\/     M anipulation  |                                                 |
\*---------------------------------------------------------------------------*/
FoamFile
{
    version     2.0;
    format      ascii;
    class       volScalarField;
    location    "1400";
    object      epsilon;
}
// * * * * * * * * * * * * * * * * * * * * * * * * * * * * * * * * * * * * * //

dimensions      [0 2 -3 0 0 0 0];

internalField   nonuniform List<scalar> 
12000
(
0.31964
0.311446
0.310114
0.309817
0.309744
0.309745
0.30982
0.310115
0.311289
0.319449
0.0652104
0.0637896
0.0627992
0.0623634
0.0622311
0.0622318
0.0623664
0.0628146
0.0638006
0.0652531
0.0176632
0.0177651
0.0173765
0.017146
0.0170619
0.0170625
0.0171482
0.0173836
0.017766
0.0176723
0.00615864
0.0063246
0.00619038
0.00609408
0.00604948
0.00605022
0.00609666
0.00620543
0.006323
0.00616012
0.00264128
0.00274357
0.00271812
0.00266704
0.00264269
0.00264301
0.00266863
0.00271827
0.00274209
0.00264037
0.00132925
0.00139819
0.00139624
0.00136565
0.00135025
0.0013506
0.00136635
0.00139504
0.00139728
0.00132957
0.000752438
0.000796239
0.000805939
0.00078931
0.000779829
0.000779829
0.000789696
0.000803796
0.000796634
0.000754837
0.00046664
0.000497515
0.000508158
0.000497339
0.000490173
0.000491066
0.000497526
0.000506485
0.000499863
0.000469722
0.000310314
0.000331464
0.00034292
0.000336893
0.000331816
0.000332472
0.000337359
0.000341844
0.000332836
0.000313484
0.000218209
0.000234789
0.000244654
0.000239841
0.000236326
0.000237138
0.000239975
0.000244241
0.00023636
0.00022142
0.000160533
0.0001753
0.000182509
0.000179129
0.000176539
0.000176972
0.000179577
0.000182728
0.000176611
0.00016373
0.000122361
0.000135219
0.000140587
0.000138834
0.000137098
0.000137338
0.00013938
0.000141763
0.000136613
0.000125667
9.59867e-05
0.000107148
0.000111856
0.000110763
0.000109565
0.000109765
0.00011139
0.00011326
0.000108737
9.94792e-05
7.70888e-05
8.68614e-05
9.12608e-05
9.05074e-05
8.96596e-05
8.98771e-05
9.1193e-05
9.27269e-05
8.8698e-05
8.08213e-05
6.31275e-05
7.18444e-05
7.60014e-05
7.54772e-05
7.48622e-05
7.50883e-05
7.61952e-05
7.74989e-05
7.39084e-05
6.71548e-05
5.25168e-05
6.04238e-05
6.43565e-05
6.40452e-05
6.3623e-05
6.38773e-05
6.4831e-05
6.59398e-05
6.27267e-05
5.68864e-05
4.42467e-05
5.15897e-05
5.52997e-05
5.51659e-05
5.48846e-05
5.51432e-05
5.59978e-05
5.70321e-05
5.41599e-05
4.90493e-05
3.7631e-05
4.45622e-05
4.81228e-05
4.81293e-05
4.80076e-05
4.83178e-05
4.90838e-05
5.00205e-05
4.7447e-05
4.29328e-05
3.21945e-05
3.88326e-05
4.23088e-05
4.2467e-05
4.24507e-05
4.27702e-05
4.35124e-05
4.44758e-05
4.21985e-05
3.81663e-05
2.75988e-05
3.40691e-05
3.75118e-05
3.7836e-05
3.79666e-05
3.83747e-05
3.90672e-05
3.99849e-05
3.79719e-05
3.43387e-05
2.35898e-05
2.99768e-05
3.3479e-05
3.39778e-05
3.41875e-05
3.46355e-05
3.53709e-05
3.63861e-05
3.46746e-05
3.13766e-05
1.99596e-05
2.63296e-05
2.99953e-05
3.07196e-05
3.1091e-05
3.16881e-05
3.23918e-05
3.33878e-05
3.19551e-05
2.89409e-05
1.65477e-05
2.29347e-05
2.69139e-05
2.78897e-05
2.8337e-05
2.8984e-05
2.98261e-05
3.09936e-05
2.99227e-05
2.71705e-05
1.3178e-05
1.95988e-05
2.40447e-05
2.54085e-05
2.6085e-05
2.69179e-05
2.77416e-05
2.89456e-05
2.81801e-05
2.57047e-05
9.73917e-06
1.60811e-05
2.12507e-05
2.30643e-05
2.38547e-05
2.47818e-05
2.58866e-05
2.738e-05
2.70304e-05
2.48621e-05
6.01206e-06
1.23531e-05
1.82315e-05
2.08483e-05
2.20674e-05
2.32023e-05
2.42634e-05
2.59376e-05
2.59457e-05
2.41906e-05
2.44068e-06
8.08651e-06
1.48584e-05
1.82152e-05
1.98368e-05
2.1255e-05
2.27846e-05
2.49324e-05
2.54294e-05
2.42984e-05
1.34829e-06
4.34766e-06
1.05959e-05
1.53956e-05
1.79067e-05
1.96382e-05
2.10799e-05
2.36575e-05
2.4954e-05
2.45347e-05
2.10867e-06
3.61194e-06
5.75231e-06
9.37338e-06
1.41012e-05
1.7344e-05
1.93941e-05
2.25839e-05
2.49139e-05
2.55364e-05
4.28934e-06
6.28348e-06
6.77046e-06
7.31926e-06
8.21173e-06
1.13144e-05
1.57292e-05
1.99226e-05
2.41856e-05
2.718e-05
0.311445
0.921227
0.913657
0.913079
0.912977
0.912978
0.913079
0.913657
0.921639
0.311522
0.0637867
0.159935
0.117432
0.115665
0.115451
0.115449
0.115683
0.117314
0.159822
0.0641935
0.0177626
0.0614045
0.0463302
0.0450785
0.0449524
0.0449346
0.0449875
0.0457676
0.0614629
0.0179335
0.00632417
0.0254373
0.0189005
0.018497
0.0183903
0.0182836
0.0183588
0.0187502
0.0258102
0.00641161
0.00274125
0.0107917
0.00823083
0.00800775
0.00795275
0.00788686
0.00792203
0.00806114
0.011035
0.0027898
0.00139638
0.00469455
0.00363994
0.003514
0.00349044
0.00345137
0.00346459
0.00350338
0.0048211
0.00142227
0.000794756
0.00200352
0.00168871
0.00158199
0.00156966
0.00154807
0.00155493
0.00157317
0.00206982
0.000810024
0.000496217
0.00109877
0.000657888
0.000667692
0.000656032
0.00065049
0.000649711
0.000666044
0.00112067
0.000506646
0.000330241
0.000591685
0.00055999
0.000420519
0.000439155
0.000414322
0.000422461
0.000425959
0.000592644
0.000336899
0.000233597
0.000342091
0.000413672
0.000233729
0.00024946
0.000228054
0.000233594
0.000258406
0.000341232
0.000238841
0.000174087
0.000172905
0.000314909
0.000133454
0.00014177
0.000129996
0.000132665
0.000146481
0.000171012
0.000178147
0.000133991
9.81553e-05
0.000215378
6.52225e-05
6.9247e-05
6.28619e-05
6.41234e-05
7.14923e-05
9.7608e-05
0.000137841
0.000105878
6.11666e-05
0.000111149
3.64428e-05
3.83924e-05
3.47536e-05
3.562e-05
3.98574e-05
6.19026e-05
0.000109838
8.553e-05
4.16611e-05
7.68016e-05
2.2824e-05
2.35039e-05
2.12814e-05
2.21527e-05
2.43622e-05
4.28609e-05
8.97868e-05
7.04365e-05
3.08767e-05
6.47093e-05
1.59136e-05
1.58099e-05
1.44169e-05
1.5335e-05
1.64072e-05
3.19725e-05
7.4954e-05
5.89211e-05
2.44883e-05
4.87303e-05
1.22757e-05
1.16538e-05
1.07241e-05
1.16596e-05
1.21049e-05
2.5263e-05
6.3765e-05
4.99793e-05
2.07457e-05
2.94631e-05
1.00005e-05
9.28365e-06
8.65998e-06
9.48913e-06
9.59535e-06
2.08044e-05
5.50649e-05
4.28255e-05
1.81721e-05
1.64757e-05
8.47725e-06
7.79695e-06
7.37623e-06
8.1134e-06
8.00655e-06
1.76205e-05
4.83089e-05
3.69681e-05
1.64995e-05
1.07162e-05
7.23839e-06
6.82014e-06
6.52135e-06
7.11696e-06
6.96454e-06
1.52027e-05
4.28241e-05
3.20725e-05
1.53486e-05
8.2099e-06
6.40675e-06
6.09636e-06
5.9413e-06
6.42733e-06
6.1851e-06
1.32743e-05
3.85158e-05
2.78841e-05
1.49035e-05
6.87401e-06
5.82069e-06
5.58115e-06
5.44351e-06
5.85891e-06
5.63575e-06
1.16926e-05
3.48429e-05
2.41643e-05
1.47653e-05
6.9761e-06
5.48534e-06
5.17416e-06
5.13154e-06
5.44193e-06
5.24371e-06
1.03616e-05
3.19816e-05
2.08169e-05
1.49871e-05
6.82262e-06
5.18291e-06
5.04101e-06
4.83336e-06
5.1402e-06
4.9464e-06
9.27809e-06
2.93657e-05
1.76182e-05
1.50924e-05
7.24469e-06
5.4161e-06
4.9467e-06
4.82069e-06
4.94108e-06
4.92152e-06
8.35894e-06
2.74278e-05
1.44946e-05
1.51638e-05
8.02176e-06
5.49427e-06
4.96827e-06
4.86486e-06
5.08895e-06
4.85319e-06
7.71658e-06
2.54304e-05
1.13341e-05
1.57777e-05
9.17473e-06
6.03463e-06
5.20581e-06
4.94669e-06
5.11897e-06
5.24917e-06
7.14119e-06
2.40968e-05
8.11781e-06
1.68214e-05
1.10711e-05
6.60732e-06
5.47121e-06
5.2399e-06
5.53715e-06
5.38566e-06
7.30737e-06
2.22748e-05
5.08336e-06
1.85876e-05
1.37582e-05
8.07033e-06
6.32636e-06
5.84008e-06
5.86685e-06
6.46088e-06
7.20365e-06
2.16145e-05
3.64638e-06
2.21408e-05
1.88685e-05
1.0858e-05
7.62072e-06
6.87078e-06
6.98337e-06
7.16575e-06
1.07891e-05
1.94606e-05
3.87389e-06
2.45817e-05
2.59347e-05
1.76714e-05
1.09496e-05
8.36862e-06
8.44998e-06
9.11905e-06
1.48038e-05
2.12159e-05
0.310114
0.913683
0.897338
0.89676
0.896708
0.89672
0.896833
0.897335
0.914027
0.310372
0.0627948
0.117011
0.108405
0.107005
0.104705
0.104191
0.104271
0.108372
0.117716
0.0632623
0.01738
0.0459124
0.00151423
0.00173844
0.0170352
0.0200591
0.0209552
0.00151645
0.0461896
0.0175278
0.00620585
0.0199974
2.2527e-05
3.02951e-06
0.00883022
0.00849528
0.00544719
1.1264e-05
0.0195492
0.00626786
0.00270789
0.00857781
0.000131502
6.18535e-05
0.00482156
0.00537634
0.00376083
9.40946e-05
0.00855713
0.00274821
0.00138943
0.0038009
0.000106005
5.01792e-05
0.000412849
0.00246772
0.00191088
0.000115259
0.00381804
0.00141029
0.000802234
0.00169287
8.07029e-05
3.32635e-05
3.0995e-05
0.00105814
0.00100407
5.07174e-05
0.00163117
0.000810937
0.000506079
0.000775246
4.76171e-05
1.48069e-05
3.0137e-06
0.000359802
0.000468985
3.39095e-05
0.000927478
0.000511171
0.000341407
0.000330686
2.61968e-05
1.72269e-05
1.47619e-06
0.000155588
0.000243143
2.0375e-05
0.000470428
0.000344051
0.00024335
0.000205066
9.98829e-06
1.09662e-05
1.06842e-06
6.96288e-05
0.000133764
1.14877e-05
0.000261233
0.000245591
0.000180808
0.000119112
1.54146e-05
7.98525e-06
9.16225e-07
3.2534e-05
6.78931e-05
6.10667e-06
0.000120923
0.0001835
0.000139331
6.94405e-05
1.17872e-05
4.61354e-06
9.7064e-07
2.44398e-05
4.17466e-05
2.71704e-06
6.33135e-05
0.000142228
0.000110656
3.54956e-05
9.50719e-06
2.83987e-06
6.7295e-07
1.43067e-05
2.21077e-05
2.9338e-06
3.64101e-05
0.000113501
9.00013e-05
2.13195e-05
6.56823e-06
1.49175e-06
5.18714e-07
7.71538e-06
1.1807e-05
2.92663e-06
2.29726e-05
9.28922e-05
7.46142e-05
1.47029e-05
5.04247e-06
9.40958e-07
3.74124e-07
3.33899e-06
6.38619e-06
2.32643e-06
1.58785e-05
7.75246e-05
6.28232e-05
1.13846e-05
2.92609e-06
6.44174e-07
2.98794e-07
1.64855e-06
2.80924e-06
1.4146e-06
1.18605e-05
6.59589e-05
5.3591e-05
9.80799e-06
1.56496e-06
3.97261e-07
2.61046e-07
7.28554e-07
1.37815e-06
7.8958e-07
9.3505e-06
5.68325e-05
4.6194e-05
8.94462e-06
1.03785e-06
4.10635e-07
2.35482e-07
6.82835e-07
7.36291e-07
5.25886e-07
7.67001e-06
4.98165e-05
4.01378e-05
8.72444e-06
8.22355e-07
3.82547e-07
2.20602e-07
4.57501e-07
4.63973e-07
3.97778e-07
6.42183e-06
4.39316e-05
3.50673e-05
8.65055e-06
8.17457e-07
3.18763e-07
2.1849e-07
3.05999e-07
3.11109e-07
3.29097e-07
5.47631e-06
3.94478e-05
3.07193e-05
8.72751e-06
8.70552e-07
3.11952e-07
2.03879e-07
2.47938e-07
3.10682e-07
3.07278e-07
4.68552e-06
3.53496e-05
2.69026e-05
8.9312e-06
1.05121e-06
3.08077e-07
2.26577e-07
2.22649e-07
2.93849e-07
3.12527e-07
4.04411e-06
3.2379e-05
2.34658e-05
9.41163e-06
1.2299e-06
3.37131e-07
2.21599e-07
2.1555e-07
2.65628e-07
2.85742e-07
3.47319e-06
2.92731e-05
2.02935e-05
1.00298e-05
1.61322e-06
3.85393e-07
2.6488e-07
2.2305e-07
2.3877e-07
2.95752e-07
2.98183e-06
2.72394e-05
1.73286e-05
1.10527e-05
1.95878e-06
4.77167e-07
2.6796e-07
2.34791e-07
2.72514e-07
2.78504e-07
2.54256e-06
2.46163e-05
1.44766e-05
1.21308e-05
2.82297e-06
6.5715e-07
3.27748e-07
2.70339e-07
2.75347e-07
3.32955e-07
2.12898e-06
2.30876e-05
1.17123e-05
1.27301e-05
4.11946e-06
9.93887e-07
3.96694e-07
3.07585e-07
3.38152e-07
3.30415e-07
1.8266e-06
2.04823e-05
9.01067e-06
1.36048e-05
6.19339e-06
1.50366e-06
6.06232e-07
4.12173e-07
3.6762e-07
4.6762e-07
1.47025e-06
1.89117e-05
6.66089e-06
1.51163e-05
8.59034e-06
2.63814e-06
8.75536e-07
5.40572e-07
5.18832e-07
5.09092e-07
1.58067e-06
1.54498e-05
5.05943e-06
1.69597e-05
1.26276e-05
4.58006e-06
1.79785e-06
8.87938e-07
6.63441e-07
8.07504e-07
1.88422e-06
1.33123e-05
0.309816
0.913081
0.896761
0.896146
0.896034
0.896034
0.896147
0.896829
0.913447
0.310079
0.0623609
0.115675
0.10709
0.106219
0.106072
0.106118
0.106218
0.10439
0.115999
0.0628178
0.0171433
0.0450602
0.00297167
0.0012237
0.00131582
0.00160257
0.00124343
0.0202058
0.0451612
0.0172886
0.00609211
0.0185473
0.000273343
4.94066e-05
8.26735e-05
2.3852e-06
7.17621e-05
0.00559873
0.0185656
0.00615613
0.00266509
0.00804174
8.3497e-05
7.13928e-07
1.53679e-05
4.1192e-09
5.19208e-06
0.00329602
0.00804295
0.00269669
0.001363
0.00352967
6.59351e-05
7.02625e-08
6.65045e-08
6.48654e-06
6.2791e-06
0.00108752
0.00353194
0.00138083
0.000787427
0.00158699
1.19946e-05
5.32217e-08
2.43207e-09
5.39604e-06
1.00486e-05
0.000578094
0.00158609
0.000797795
0.000495182
0.000664359
2.95289e-06
3.97658e-08
1.25753e-09
5.12043e-06
7.37604e-06
0.000234101
0.000675167
0.000503078
0.000335262
0.000439302
1.56964e-06
3.53073e-08
1.17956e-09
3.94193e-06
4.22987e-06
0.000174871
0.000408626
0.000340563
0.000237767
0.000244999
8.90317e-07
1.58991e-08
9.92388e-10
2.77318e-06
1.9697e-06
9.45624e-05
0.000221142
0.000243109
0.000177442
0.000139274
5.95857e-07
6.85997e-09
3.21327e-09
1.44111e-06
1.28651e-06
5.02308e-05
0.000125108
0.0001817
0.000137212
6.75549e-05
3.81837e-07
5.58951e-09
1.84117e-09
7.32141e-07
8.16311e-07
2.11728e-05
5.98556e-05
0.00014108
0.000109161
3.77848e-05
3.36967e-07
4.7068e-09
1.75435e-09
5.35631e-07
5.87034e-07
9.54959e-06
3.25879e-05
0.000112868
8.88188e-05
2.37264e-05
4.75031e-07
5.49453e-09
1.73241e-09
2.85417e-07
3.14324e-07
4.27952e-06
1.98116e-05
9.26247e-05
7.36322e-05
1.6692e-05
4.68575e-07
8.99767e-09
1.83125e-09
1.48783e-07
1.78393e-07
2.09366e-06
1.33693e-05
7.74781e-05
6.20012e-05
1.30266e-05
5.75133e-07
1.18375e-08
1.63504e-09
9.04755e-08
9.0615e-08
1.05113e-06
9.94317e-06
6.60814e-05
5.28967e-05
1.11416e-05
5.62458e-07
1.43557e-08
2.03508e-09
4.47517e-08
7.23767e-08
5.28507e-07
7.90153e-06
5.70394e-05
4.55931e-05
9.99098e-06
5.7361e-07
1.82162e-08
2.15546e-09
3.6914e-08
3.99901e-08
2.95213e-07
6.62226e-06
5.01194e-05
3.96302e-05
9.60926e-06
6.13863e-07
2.27848e-08
2.34902e-09
2.04228e-08
1.8808e-08
1.87615e-07
5.6572e-06
4.4259e-05
3.46273e-05
9.41175e-06
7.11557e-07
3.34262e-08
2.90865e-09
1.00514e-08
1.0316e-08
1.36439e-07
4.95494e-06
3.9849e-05
3.03535e-05
9.45012e-06
8.16106e-07
4.42844e-08
4.04522e-09
6.1137e-09
6.23559e-09
1.07907e-07
4.30407e-06
3.57464e-05
2.66136e-05
9.53563e-06
1.00131e-06
6.75522e-08
5.64451e-09
3.76301e-09
5.39649e-09
9.07103e-08
3.7937e-06
3.28371e-05
2.32486e-05
9.79196e-06
1.17813e-06
9.63749e-08
9.64804e-09
4.64123e-09
4.44417e-09
7.62008e-08
3.25072e-06
2.96963e-05
2.01988e-05
1.03356e-05
1.53745e-06
1.47398e-07
1.4366e-08
4.34162e-09
5.41234e-09
6.44336e-08
2.82169e-06
2.76877e-05
1.72876e-05
1.08353e-05
1.86e-06
2.3072e-07
2.69702e-08
7.88601e-09
5.40515e-09
5.24977e-08
2.32379e-06
2.4968e-05
1.45498e-05
1.17429e-05
2.42089e-06
3.39493e-07
4.42757e-08
8.93483e-09
7.66357e-09
4.23626e-08
1.95604e-06
2.34231e-05
1.19356e-05
1.19955e-05
3.65303e-06
5.63766e-07
8.67626e-08
2.23338e-08
8.48078e-09
3.45302e-08
1.49624e-06
2.06059e-05
9.43547e-06
1.24258e-05
5.18652e-06
9.49772e-07
1.58428e-07
3.09349e-08
1.69132e-08
2.55343e-08
1.22371e-06
1.90469e-05
7.12886e-06
1.31272e-05
6.85184e-06
1.65302e-06
3.28304e-07
8.86201e-08
2.23379e-08
3.90127e-08
8.48995e-07
1.4951e-05
5.06799e-06
1.39238e-05
8.93842e-06
2.58066e-06
6.41108e-07
1.67431e-07
5.96507e-08
4.50725e-08
8.96609e-07
1.32204e-05
0.309744
0.91298
0.896704
0.896033
0.895932
0.895931
0.896033
0.896723
0.913348
0.310006
0.062228
0.115421
0.10487
0.106098
0.105389
0.105451
0.106142
0.104008
0.11571
0.0626834
0.0170587
0.0449603
0.0153882
0.00128603
0.00169481
0.00152869
0.00123524
0.0211023
0.0449971
0.0172025
0.00604594
0.0183285
0.00272632
5.64042e-05
2.45927e-05
5.02911e-05
2.65947e-05
0.00464356
0.0184376
0.00610991
0.00264022
0.00792271
0.000828277
5.48988e-06
3.86324e-09
6.2294e-08
3.6292e-08
0.00293483
0.00797943
0.00267071
0.00134817
0.00347381
0.000442717
4.37244e-06
2.39484e-12
3.47374e-12
1.54808e-06
0.000974855
0.00350199
0.00136544
0.00077785
0.00155982
0.000194769
3.47241e-06
1.20322e-09
1.24046e-09
1.54409e-06
0.000432788
0.00157389
0.000788197
0.000488595
0.000653273
8.60256e-05
2.05792e-06
9.02454e-09
5.32172e-09
1.88734e-07
0.000192437
0.000658192
0.000495007
0.000330284
0.000430708
4.69008e-05
1.61698e-06
1.13709e-08
5.54783e-09
2.00753e-07
0.000140947
0.000440047
0.000334445
0.000234726
0.00024323
2.60499e-05
9.08639e-07
7.71908e-09
9.65234e-09
8.37286e-08
8.03496e-05
0.000260929
0.000239225
0.00017494
0.000138998
1.64999e-05
4.80504e-07
4.49652e-09
9.18312e-09
4.02693e-08
4.2758e-05
0.000147455
0.000179134
0.000135391
6.7818e-05
8.57536e-06
2.66086e-07
4.41235e-09
4.77942e-09
2.13456e-08
1.81045e-05
7.10387e-05
0.000139339
0.000107764
3.79284e-05
4.82651e-06
1.34294e-07
2.26969e-09
4.87453e-09
1.35216e-08
8.18631e-06
3.8689e-05
0.00011152
8.77423e-05
2.37933e-05
2.40791e-06
7.34181e-08
9.1061e-10
2.65907e-09
6.42885e-09
3.74829e-06
2.29803e-05
9.1486e-05
7.27926e-05
1.65716e-05
1.1722e-06
6.5279e-08
9.74632e-10
1.38524e-09
3.63236e-09
1.75744e-06
1.50059e-05
7.64805e-05
6.13484e-05
1.28709e-05
1.17376e-06
4.063e-08
6.69972e-10
1.25457e-09
2.09008e-09
8.60727e-07
1.07818e-05
6.51933e-05
5.23712e-05
1.08314e-05
8.64054e-07
2.86607e-08
7.16452e-10
9.64378e-10
1.30013e-09
4.56148e-07
8.33786e-06
5.62535e-05
4.51985e-05
9.7758e-06
6.86675e-07
2.42389e-08
6.91127e-10
8.44689e-10
1.35815e-09
2.71286e-07
6.83278e-06
4.94209e-05
3.93063e-05
9.18377e-06
6.34754e-07
2.51004e-08
6.34027e-10
4.74552e-10
9.41059e-10
1.82828e-07
5.74867e-06
4.36434e-05
3.43948e-05
8.86988e-06
6.84969e-07
3.06122e-08
1.25537e-09
2.44697e-10
8.33379e-10
1.37306e-07
4.95552e-06
3.92897e-05
3.01812e-05
9.09014e-06
7.6393e-07
3.98382e-08
1.50073e-09
3.19664e-10
6.83471e-10
1.10314e-07
4.25443e-06
3.52352e-05
2.64799e-05
9.07868e-06
9.30432e-07
5.96366e-08
3.57692e-09
3.72324e-10
5.89697e-10
9.11342e-08
3.69543e-06
3.23498e-05
2.31674e-05
9.35502e-06
1.09571e-06
8.41672e-08
5.0511e-09
4.86615e-10
4.98137e-10
7.54601e-08
3.13532e-06
2.92294e-05
2.01103e-05
9.78928e-06
1.4198e-06
1.32456e-07
1.20084e-08
9.72103e-10
6.1286e-10
6.09297e-08
2.68839e-06
2.72221e-05
1.72512e-05
1.04402e-05
1.76007e-06
2.07773e-07
1.8919e-08
1.25524e-09
6.86497e-10
4.82829e-08
2.19813e-06
2.45333e-05
1.45355e-05
1.1507e-05
2.31049e-06
3.17565e-07
4.12971e-08
6.04067e-09
1.04804e-09
3.56836e-08
1.83413e-06
2.29309e-05
1.19209e-05
1.19009e-05
3.60403e-06
5.33677e-07
7.0057e-08
8.21695e-09
1.38791e-09
2.68196e-08
1.39252e-06
2.02172e-05
9.37887e-06
1.24286e-05
5.1737e-06
9.58773e-07
1.55434e-07
3.14729e-08
4.90517e-09
1.60338e-08
1.13417e-06
1.84709e-05
7.00333e-06
1.31693e-05
6.92008e-06
1.60856e-06
3.07906e-07
5.43202e-08
7.90144e-09
1.91277e-08
7.66431e-07
1.48194e-05
4.79911e-06
1.3976e-05
8.98502e-06
2.6315e-06
6.33962e-07
1.64019e-07
4.96076e-08
2.37033e-08
8.01821e-07
1.17367e-05
0.309744
0.912981
0.896725
0.896056
0.895928
0.895935
0.896036
0.896715
0.91335
0.310005
0.0622281
0.115345
0.104016
0.105068
0.105407
0.105445
0.106042
0.104292
0.115651
0.0626829
0.0170602
0.0449981
0.021074
0.00373066
0.00163394
0.00153521
0.00131575
0.0193222
0.0449428
0.0172022
0.00604132
0.0180269
0.00650852
7.86843e-05
1.02736e-05
5.31281e-05
4.92829e-05
0.00886961
0.0183864
0.00610958
0.00264103
0.00775365
0.00278045
2.46274e-08
1.78635e-09
7.55455e-08
1.18156e-06
0.00489695
0.00793377
0.00267065
0.00135273
0.00339021
0.00130675
2.04918e-06
1.21709e-12
6.3355e-12
5.72043e-07
0.000998023
0.00347156
0.00136513
0.000780322
0.00151507
0.000472719
1.39054e-06
8.99749e-09
3.84175e-09
9.63629e-07
0.000438322
0.00156017
0.000788166
0.000490964
0.000641411
0.000476006
5.12747e-06
1.03078e-08
2.6582e-10
2.41119e-07
0.000210808
0.000646083
0.00049472
0.000331689
0.000371413
0.000252138
4.74558e-06
1.73262e-08
5.7879e-10
4.40412e-08
1.80031e-05
0.000445108
0.000336117
0.000235524
0.00020562
0.000108265
4.22512e-06
1.75826e-08
1.23188e-10
1.45761e-08
8.02781e-06
0.00026452
0.000237547
0.000175374
0.000117878
4.4001e-05
2.02294e-06
1.16933e-08
2.43712e-10
7.654e-09
3.81354e-06
0.000150819
0.000178248
0.000135455
5.81575e-05
3.10932e-05
2.1768e-06
1.68832e-08
1.16584e-10
3.34632e-09
1.81203e-06
7.15383e-05
0.000139072
0.000107777
3.31191e-05
2.26198e-05
1.38977e-06
1.95544e-08
1.30463e-10
3.29025e-09
8.99724e-07
3.84043e-05
0.000111417
8.77478e-05
2.15978e-05
1.51594e-05
1.07406e-06
1.33023e-08
1.27941e-10
1.59092e-09
4.90193e-07
2.27402e-05
9.14403e-05
7.28286e-05
1.59806e-05
7.5262e-06
5.42708e-07
9.49823e-09
9.95339e-11
9.65087e-10
2.96136e-07
1.47706e-05
7.64714e-05
6.14073e-05
1.30348e-05
6.05588e-06
4.70473e-07
5.47536e-09
1.29746e-10
6.8274e-10
1.98115e-07
1.05569e-05
6.52022e-05
5.24472e-05
1.13246e-05
3.47993e-06
2.98448e-07
9.3439e-09
5.62777e-11
5.32829e-10
1.50887e-07
8.11455e-06
5.62635e-05
4.52663e-05
1.0392e-05
1.81451e-06
1.5763e-07
6.73142e-09
2.92925e-10
5.54782e-10
1.2426e-07
6.61334e-06
4.94204e-05
3.93801e-05
9.74548e-06
1.15034e-06
8.85315e-08
3.67882e-09
3.11505e-10
5.14056e-10
1.07203e-07
5.53358e-06
4.362e-05
3.44659e-05
9.48614e-06
9.39962e-07
6.31514e-08
4.1395e-09
3.44433e-10
4.76702e-10
9.4753e-08
4.76789e-06
3.92603e-05
3.02529e-05
9.60815e-06
9.27022e-07
5.79689e-08
3.11546e-09
2.95364e-10
4.38588e-10
8.37086e-08
4.09365e-06
3.51814e-05
2.65662e-05
9.66844e-06
1.02637e-06
6.87605e-08
5.32275e-09
1.03659e-10
4.47336e-10
7.3952e-08
3.57976e-06
3.23219e-05
2.32488e-05
1.00911e-05
1.21064e-06
9.72201e-08
6.16095e-09
7.38134e-10
4.41217e-10
6.40545e-08
3.05051e-06
2.91782e-05
2.01942e-05
1.0351e-05
1.49645e-06
1.37411e-07
1.40756e-08
7.23027e-10
4.54291e-10
5.38532e-08
2.64195e-06
2.72222e-05
1.73502e-05
1.09866e-05
1.84974e-06
2.19212e-07
1.98173e-08
2.76642e-09
6.2853e-10
4.3999e-08
2.1686e-06
2.45084e-05
1.46611e-05
1.19775e-05
2.50123e-06
3.34024e-07
4.58677e-08
3.68688e-09
9.56114e-10
3.3323e-08
1.82755e-06
2.29579e-05
1.20502e-05
1.23174e-05
3.85907e-06
5.75028e-07
7.63057e-08
1.39664e-08
2.07241e-09
2.5871e-08
1.38497e-06
2.02114e-05
9.48979e-06
1.27308e-05
5.34424e-06
9.86691e-07
1.7188e-07
2.26322e-08
5.18088e-09
1.55867e-08
1.14955e-06
1.85678e-05
7.09015e-06
1.33444e-05
7.01456e-06
1.64315e-06
3.21039e-07
7.50844e-08
7.99112e-09
1.86476e-08
7.38241e-07
1.4597e-05
4.85621e-06
1.39646e-05
8.93876e-06
2.59957e-06
6.39937e-07
1.50679e-07
4.80628e-08
2.14675e-08
8.4734e-07
1.25638e-05
0.309819
0.91308
0.896834
0.896172
0.896032
0.896038
0.896171
0.896831
0.913448
0.310078
0.0623625
0.115617
0.104252
0.10514
0.10606
0.105969
0.105173
0.104247
0.115938
0.0628167
0.0171455
0.0450617
0.0210576
0.00450094
0.00129068
0.00122985
0.00446853
0.0211226
0.0450264
0.0172876
0.00608744
0.0180782
0.00622547
0.000740647
6.9541e-05
4.04583e-05
0.000674821
0.00456268
0.0184157
0.00615549
0.00266599
0.00778162
0.00266838
3.26991e-05
2.25166e-06
4.88651e-07
0.000233479
0.00251869
0.00794863
0.00269608
0.00136845
0.00339556
0.0011972
9.01709e-06
4.58758e-07
3.40661e-07
2.04349e-06
0.000814831
0.00347857
0.00138032
0.000790295
0.0015177
0.00056055
5.80647e-06
4.71164e-06
1.02999e-06
2.47206e-06
0.000435577
0.00156073
0.00079748
0.000497674
0.000640596
0.000208259
5.45347e-06
6.63943e-07
2.15075e-07
3.75047e-07
0.000168749
0.000654468
0.00050239
0.000336376
0.000375296
0.000195263
3.18545e-06
8.89698e-07
3.26654e-07
1.03287e-08
0.000139513
0.000418115
0.000340407
0.000238924
0.000211183
9.41712e-05
1.45261e-06
3.1404e-07
9.60666e-08
2.08288e-08
6.46869e-05
0.000229641
0.000242475
0.000177792
0.000120357
7.6914e-05
1.43886e-06
2.47925e-07
6.05316e-08
4.73545e-08
3.44357e-05
0.000130111
0.000181402
0.000137393
5.94787e-05
4.04956e-05
8.62137e-07
1.64935e-07
2.33271e-08
1.25823e-08
1.45916e-05
6.24647e-05
0.000140927
0.000109223
3.36896e-05
2.01458e-05
5.1237e-07
1.28367e-07
1.24619e-08
1.03826e-08
6.61864e-06
3.41051e-05
0.000112792
8.88915e-05
2.19737e-05
1.66385e-05
2.13986e-07
4.34692e-08
7.01183e-09
5.28858e-09
3.04431e-06
2.08381e-05
9.26031e-05
7.37339e-05
1.6214e-05
1.3223e-05
3.56003e-07
4.40532e-08
4.61624e-09
3.92072e-09
1.44904e-06
1.40886e-05
7.74882e-05
6.21229e-05
1.32005e-05
6.74906e-06
3.60414e-07
3.07404e-08
3.0127e-09
3.2614e-09
7.29646e-07
1.04533e-05
6.61001e-05
5.30163e-05
1.15189e-05
4.93488e-06
2.65431e-07
1.20357e-08
3.73158e-09
3.0683e-09
3.99612e-07
8.26201e-06
5.70616e-05
4.57104e-05
1.03885e-05
3.95807e-06
2.38808e-07
1.6754e-08
2.34375e-09
2.97673e-09
2.48645e-07
6.87102e-06
5.01241e-05
3.97444e-05
1.01602e-05
2.58301e-06
1.79135e-07
1.06617e-08
3.18787e-09
3.11476e-09
1.75514e-07
5.83998e-06
4.4267e-05
3.47208e-05
9.96991e-06
1.61338e-06
1.18659e-07
7.38672e-09
2.43646e-09
3.1886e-09
1.37991e-07
5.09057e-06
3.98435e-05
3.04486e-05
9.92577e-06
1.18848e-06
8.63391e-08
1.48533e-08
3.52013e-09
3.36946e-09
1.1495e-07
4.41767e-06
3.5753e-05
2.66783e-05
9.96298e-06
1.1534e-06
8.94526e-08
1.02755e-08
3.20485e-09
3.69977e-09
9.92156e-08
3.88821e-06
3.28524e-05
2.32946e-05
1.01504e-05
1.23169e-06
1.04159e-07
1.71604e-08
4.2925e-09
3.7711e-09
8.49217e-08
3.3365e-06
2.97164e-05
2.01895e-05
1.01429e-05
1.50803e-06
1.48141e-07
1.7912e-08
4.78963e-09
5.13814e-09
7.20513e-08
2.89908e-06
2.77453e-05
1.72945e-05
1.0611e-05
1.8121e-06
2.21513e-07
3.69724e-08
6.69231e-09
5.57908e-09
5.93318e-08
2.39519e-06
2.50495e-05
1.45658e-05
1.15984e-05
2.35297e-06
3.27978e-07
4.6818e-08
1.07107e-08
7.83624e-09
4.77232e-08
2.02323e-06
2.34742e-05
1.19698e-05
1.19485e-05
3.6262e-06
5.45474e-07
1.03297e-07
1.75816e-08
8.62205e-09
3.90692e-08
1.5549e-06
2.09156e-05
9.48253e-06
1.24285e-05
5.19516e-06
9.55062e-07
1.61815e-07
3.7208e-08
1.82866e-08
2.88132e-08
1.28216e-06
1.87074e-05
7.1975e-06
1.32024e-05
6.94555e-06
1.64395e-06
3.47039e-07
6.99699e-08
2.37758e-08
4.21853e-08
8.90166e-07
1.57698e-05
5.14899e-06
1.40374e-05
9.07653e-06
2.69026e-06
6.63305e-07
1.75411e-07
6.37509e-08
5.01074e-08
9.95147e-07
1.17363e-05
0.310114
0.913658
0.897338
0.896821
0.896724
0.896723
0.896822
0.897346
0.914031
0.310371
0.0628105
0.117263
0.108274
0.104702
0.103998
0.104042
0.104653
0.107944
0.117428
0.0632642
0.0173809
0.0458399
0.00197738
0.0183744
0.0211047
0.0209544
0.0185619
0.00339327
0.0457908
0.0175275
0.00619661
0.0185442
6.29708e-05
0.00311697
0.00511789
0.00426919
0.00971152
0.00128639
0.0186954
0.00626635
0.00271688
0.0079674
0.000130006
0.00192028
0.00179882
0.00245238
0.00336814
0.000951223
0.00804402
0.002747
0.00139027
0.00347149
8.04847e-05
0.000685248
0.00156323
0.000846653
0.000382593
0.000365583
0.00351019
0.00140911
0.000802594
0.00155616
4.42089e-05
0.00036302
0.000883171
0.000445702
0.000142405
0.000192394
0.00156199
0.000813684
0.000504028
0.000647494
2.02e-05
0.000148826
0.000442149
0.000160569
4.17071e-05
7.47789e-05
0.000670655
0.000512848
0.000340886
0.00042759
2.18377e-05
0.00011752
0.000279387
0.000142325
3.607e-05
5.54408e-05
0.000381344
0.000346304
0.000241467
0.000236578
1.5622e-05
5.54607e-05
0.000168671
6.45441e-05
1.44642e-05
2.82609e-05
0.000205009
0.000246689
0.000180139
0.000134873
1.1207e-05
2.98377e-05
0.000117881
3.458e-05
7.90256e-06
1.54924e-05
0.000116462
0.000183672
0.000139284
6.56643e-05
7.90863e-06
1.10808e-05
8.23604e-05
1.50128e-05
3.60332e-06
5.71466e-06
5.64693e-05
0.000142126
0.000110764
3.67098e-05
5.8737e-06
9.33043e-06
6.07619e-05
6.98614e-06
1.79537e-06
5.3273e-06
3.13067e-05
0.000113301
9.01186e-05
2.31423e-05
4.06175e-06
5.38257e-06
2.93597e-05
3.44808e-06
9.74732e-07
4.01715e-06
1.94055e-05
9.2629e-05
7.47311e-05
1.64282e-05
2.20216e-06
2.59616e-06
2.3286e-05
1.91431e-06
6.00083e-07
2.36285e-06
1.3349e-05
7.72422e-05
6.29496e-05
1.30633e-05
2.02035e-06
1.41469e-06
1.25043e-05
1.15732e-06
4.19473e-07
1.26802e-06
1.0084e-05
6.5692e-05
5.37092e-05
1.09653e-05
1.32352e-06
7.53743e-07
4.88672e-06
7.19468e-07
3.39617e-07
6.43803e-07
8.11766e-06
5.65966e-05
4.63268e-05
1.05584e-05
9.35669e-07
6.22527e-07
3.35032e-06
4.96828e-07
2.80334e-07
6.44804e-07
6.83654e-06
4.96212e-05
4.02504e-05
1.0153e-05
8.17892e-07
4.39762e-07
1.66696e-06
3.91832e-07
2.85677e-07
5.61903e-07
5.87261e-06
4.37763e-05
3.51805e-05
9.94136e-06
8.53105e-07
3.3525e-07
1.5324e-06
2.90664e-07
2.62241e-07
4.35332e-07
5.12681e-06
3.93305e-05
3.08232e-05
9.59845e-06
9.12808e-07
2.9901e-07
9.63731e-07
3.33244e-07
2.68013e-07
3.2206e-07
4.47392e-06
3.52706e-05
2.69762e-05
9.63683e-06
1.08825e-06
3.22627e-07
5.98326e-07
2.77391e-07
2.65699e-07
3.21962e-07
3.91609e-06
3.23247e-05
2.3531e-05
9.747e-06
1.25886e-06
3.32618e-07
4.03776e-07
2.83829e-07
2.67876e-07
3.07236e-07
3.40077e-06
2.92415e-05
2.03672e-05
1.02505e-05
1.64294e-06
3.82194e-07
3.77299e-07
2.66971e-07
2.63298e-07
2.75721e-07
2.93252e-06
2.72059e-05
1.73851e-05
1.10886e-05
2.0016e-06
4.69306e-07
3.55697e-07
2.70442e-07
2.8023e-07
3.02155e-07
2.50754e-06
2.45864e-05
1.45181e-05
1.21105e-05
2.7823e-06
6.18009e-07
4.10414e-07
2.96965e-07
2.92109e-07
2.96227e-07
2.09534e-06
2.30139e-05
1.17516e-05
1.2664e-05
4.10495e-06
9.26706e-07
4.69055e-07
3.48418e-07
3.30157e-07
3.50142e-07
1.78908e-06
2.0446e-05
9.05492e-06
1.3534e-05
6.18294e-06
1.41818e-06
6.87203e-07
4.47413e-07
3.96209e-07
3.82925e-07
1.44128e-06
1.87379e-05
6.71254e-06
1.50718e-05
8.62667e-06
2.55775e-06
9.48899e-07
5.99352e-07
5.12754e-07
5.42897e-07
1.48007e-06
1.54837e-05
5.12274e-06
1.69588e-05
1.26611e-05
4.62085e-06
1.88528e-06
9.40085e-07
7.26529e-07
6.88293e-07
1.86664e-06
1.29858e-05
0.311288
0.921644
0.914032
0.913451
0.913352
0.913354
0.913453
0.914036
0.922021
0.311545
0.0637954
0.159672
0.1176
0.115951
0.115625
0.115613
0.11589
0.117386
0.159634
0.064246
0.0177676
0.0615976
0.0463431
0.0451553
0.0450237
0.0449324
0.0450045
0.0457678
0.0614303
0.0179599
0.00629863
0.0248498
0.0190231
0.0185342
0.0181437
0.018352
0.018425
0.0187184
0.0259807
0.00640683
0.00274406
0.0105754
0.00823256
0.00802118
0.0078378
0.00792105
0.0079516
0.00805624
0.01116
0.00279464
0.00139713
0.00458324
0.0036728
0.00352065
0.00343154
0.00346538
0.00347855
0.00351442
0.00491757
0.00141918
0.000801105
0.00202824
0.00164689
0.00158097
0.00153721
0.00155357
0.00156106
0.00156493
0.0021018
0.000812724
0.000498338
0.000868546
0.000754708
0.000668022
0.000653332
0.000655211
0.000653166
0.000664865
0.00113387
0.000505192
0.000334882
0.000520617
0.000330363
0.000414323
0.000376422
0.000405922
0.000418804
0.000399849
0.000622745
0.000337269
0.000233269
0.000309164
0.000191835
0.000226452
0.000211536
0.000220389
0.000230653
0.000214013
0.00035421
0.000239237
0.000173208
0.000186486
0.000159526
0.000128982
0.000120085
0.000125421
0.000130929
0.000121367
0.00017042
0.000177847
0.000133414
9.87746e-05
0.000109698
6.28176e-05
5.83241e-05
6.06393e-05
6.31895e-05
5.86381e-05
9.46608e-05
0.000137418
0.000105601
6.02788e-05
6.35534e-05
3.50261e-05
3.24366e-05
3.35463e-05
3.50496e-05
3.24066e-05
5.88803e-05