/*--------------------------------*- C++ -*----------------------------------*\
| =========                 |                                                 |
| \\      /  F ield         | OpenFOAM: The Open Source CFD Toolbox           |
|  \\    /   O peration     | Version:  4.1                                   |
|   \\  /    A nd           | Web:      www.OpenFOAM.org                      |
|    \\/     M anipulation  |                                                 |
\*---------------------------------------------------------------------------*/
FoamFile
{
    version     2.0;
    format      ascii;
    class       volScalarField;
    location    "1400";
    object      k;
}
// * * * * * * * * * * * * * * * * * * * * * * * * * * * * * * * * * * * * * //

dimensions      [0 2 -2 0 0 0 0];

internalField   nonuniform List<scalar> 
12000
(
0.116513
0.11365
0.113359
0.113285
0.113266
0.113266
0.113284
0.11336
0.113691
0.116564
0.0404513
0.039625
0.0394052
0.0392274
0.0391715
0.0391715
0.0392271
0.039399
0.0396174
0.0404355
0.0169083
0.016711
0.0166723
0.0165309
0.0164763
0.0164767
0.016531
0.0166645
0.0167084
0.0169134
0.00838172
0.00842786
0.00841247
0.00831872
0.00827662
0.00827713
0.00831918
0.00841023
0.00842831
0.00838513
0.00476728
0.00487612
0.00486551
0.00480519
0.00477499
0.00477522
0.00480645
0.00486578
0.00487858
0.00477312
0.00301344
0.00312378
0.00312217
0.00308202
0.00305898
0.00305969
0.00308319
0.00312367
0.0031268
0.0030217
0.00206474
0.00215797
0.00216328
0.00213788
0.00212104
0.00212122
0.00213946
0.00216565
0.00216001
0.0020731
0.00150192
0.00157241
0.00158827
0.00157297
0.00155937
0.00156034
0.00157434
0.00159277
0.00157675
0.00151129
0.00114563
0.00120685
0.00122277
0.00121049
0.00119874
0.00120018
0.00121177
0.00122481
0.00121052
0.00115496
0.00090568
0.000955285
0.000975585
0.000967213
0.000958425
0.000959721
0.000968495
0.000978721
0.000959301
0.00091566
0.000737783
0.000783093
0.00080134
0.000795127
0.000787549
0.000789109
0.000796638
0.000804662
0.000786696
0.000748331
0.000615743
0.000658547
0.000675126
0.000669726
0.000664043
0.000664747
0.000671605
0.000678731
0.000662466
0.000627125
0.000523928
0.000564138
0.000579622
0.000575695
0.000571642
0.000572101
0.000577782
0.000584332
0.000569013
0.000536599
0.00045284
0.000490625
0.00050589
0.000503156
0.000500211
0.000500813
0.00050567
0.000511468
0.000496849
0.000467209
0.000396464
0.000432411
0.000447573
0.000445819
0.000443617
0.000444381
0.000448693
0.00045402
0.000440134
0.000412952
0.00035074
0.000385333
0.000400505
0.000399647
0.000398097
0.000399108
0.000403008
0.000407835
0.000394704
0.00036973
0.000312877
0.000346729
0.00036212
0.000361879
0.000360798
0.000361932
0.000365609
0.000370335
0.000358015
0.000334964
0.000280851
0.000314519
0.000330077
0.000330457
0.000330026
0.000331462
0.000334923
0.000339388
0.000327858
0.000306521
0.000253095
0.000286911
0.000303087
0.000304046
0.000304052
0.000305595
0.000309106
0.000313804
0.000303245
0.0002834
0.000228389
0.000262952
0.000279829
0.000281532
0.000282232
0.000284264
0.000287685
0.000292286
0.000282638
0.000264124
0.000205695
0.000241362
0.00025947
0.000262049
0.000263192
0.000265469
0.000269215
0.000274412
0.000266016
0.000248694
0.000184022
0.000221451
0.000241163
0.000245002
0.00024702
0.000250155
0.000253895
0.00025907
0.000251869
0.000235651
0.000162405
0.000201881
0.000224374
0.000229758
0.000232188
0.000235707
0.00024026
0.000246565
0.000241012
0.000225917
0.000139579
0.000181987
0.000208149
0.000215886
0.000219704
0.000224321
0.000228916
0.000235516
0.000231501
0.000217726
0.000114146
0.000159483
0.000191737
0.000202439
0.000207016
0.000212335
0.000218554
0.000226964
0.000225092
0.000212803
8.28096e-05
0.000133699
0.00017319
0.000189237
0.000196565
0.000203172
0.000209358
0.000218853
0.000218991
0.000209285
4.54408e-05
0.000100762
0.000151013
0.000173045
0.000182985
0.000191659
0.000200738
0.000213139
0.000215985
0.000208874
3.05092e-05
6.66559e-05
0.000120506
0.000154154
0.000171254
0.000181754
0.000190446
0.000205894
0.000213465
0.000211949
4.10709e-05
5.88761e-05
7.99577e-05
0.000111577
0.000145141
0.000167347
0.000181055
0.000198891
0.000212879
0.0002132
6.59454e-05
8.49568e-05
9.00462e-05
9.07123e-05
0.000104348
0.000125618
0.000155364
0.000185675
0.000208025
0.000227894
0.113649
0.0167196
0.0147878
0.0147814
0.0147829
0.0147829
0.0147814
0.0147877
0.0167126
0.113619
0.0396243
0.00117896
0.000557411
0.000550993
0.000551082
0.000551116
0.000551054
0.00055746
0.00117643
0.039451
0.0167079
0.000584401
0.000189262
0.000186398
0.000186545
0.000186446
0.000186341
0.000192254
0.000584571
0.0166026
0.00842446
0.000347516
0.000122641
0.000115725
0.000116741
0.000116627
0.00011617
0.000119811
0.00034452
0.00832092
0.00487451
0.00022931
8.27487e-05
8.12132e-05
8.12996e-05
8.19399e-05
8.14945e-05
8.6237e-05
0.000227067
0.00479614
0.00312135
0.000145236
4.60011e-05
5.29332e-05
5.47273e-05
5.42098e-05
5.3898e-05
5.21089e-05
0.000143453
0.00307517
0.00215531
0.000109912
2.9094e-05
3.45696e-05
3.42895e-05
3.51179e-05
3.48064e-05
3.80372e-05
0.000110133
0.00213212
0.00156967
0.000103783
2.38239e-05
2.88184e-05
3.2167e-05
2.97072e-05
3.02662e-05
3.26374e-05
9.58045e-05
0.00156231
0.00120393
8.01585e-05
1.35187e-05
2.42379e-05
2.75952e-05
2.5741e-05
2.57885e-05
2.69264e-05
7.59453e-05
0.00120184
0.000952086
5.90406e-05
1.52282e-05
2.01679e-05
2.24855e-05
1.98012e-05
2.17345e-05
2.34752e-05
3.92043e-05
0.000954759
0.000779568
0.000126542
1.44372e-05
1.32318e-05
1.13004e-05
1.4339e-05
1.17893e-05
9.58688e-06
0.000107239
0.000783836
0.000654573
0.000165179
1.04634e-05
2.51022e-05
3.20661e-05
2.1152e-05
2.98652e-05
3.58656e-05
0.000156726
0.000661314
0.000559691
0.000176809
1.22154e-05
4.25196e-05
4.98179e-05
4.33292e-05
4.58714e-05
5.98782e-05
0.000182011
0.000569549
0.000485622
0.000178059
1.50499e-05
5.66761e-05
6.0457e-05
5.79949e-05
6.1532e-05
7.33851e-05
0.000190922
0.000498878
0.000426775
0.000174764
1.76449e-05
6.40748e-05
6.61169e-05
6.45974e-05
7.08857e-05
7.78078e-05
0.000189285
0.000443013
0.000378952
0.000168668
1.1925e-05
6.80838e-05
6.82372e-05
6.63038e-05
7.39533e-05
7.76707e-05
0.000181795
0.000398281
0.00033951
0.000165203
2.0517e-05
6.7863e-05
6.8625e-05
6.65988e-05
7.35759e-05
7.53799e-05
0.000171534
0.000361542
0.000306341
0.000159354
2.77463e-05
6.71109e-05
6.70518e-05
6.56026e-05
7.20559e-05
7.1832e-05
0.000160274
0.000331577
0.000277705
0.000154072
4.38366e-05
6.48878e-05
6.5749e-05
6.42671e-05
6.89966e-05
6.93964e-05
0.000148823
0.000306157
0.000252642
0.000154313
5.69553e-05
6.40783e-05
6.33701e-05
6.34505e-05
6.72909e-05
6.53366e-05
0.00013769
0.000285391
0.000230057
0.000154087
6.66759e-05
6.27693e-05
6.20225e-05
6.10994e-05
6.41643e-05
6.37882e-05
0.000126996
0.000267038
0.000209246
0.000158212
7.20047e-05
6.32183e-05
6.13274e-05
6.05436e-05
6.33018e-05
6.23576e-05
0.000117255
0.000252232
0.000189329
0.000161389
7.84368e-05
6.4318e-05
6.1487e-05
6.06111e-05
6.24378e-05
6.31214e-05
0.000108693
0.000238365
0.000169676
0.000167642
8.78346e-05
6.54215e-05
6.19809e-05
6.03879e-05
6.25639e-05
6.35106e-05
0.000100816
0.000227638
0.000149015
0.000168668
9.89865e-05
6.85841e-05
6.44048e-05
6.349e-05
6.32991e-05
6.45589e-05
9.53379e-05
0.000216467
0.000126428
0.000173409
0.000114881
7.42704e-05
6.60322e-05
6.47707e-05
6.59591e-05
6.49359e-05
8.95402e-05
0.000208493
0.000101138
0.000184763
0.000130743
8.35061e-05
6.97055e-05
6.9097e-05
6.8497e-05
6.85556e-05
8.87006e-05
0.000198595
7.38835e-05
0.000202344
0.000164631
0.00010069
7.8758e-05
7.59903e-05
7.60087e-05
7.36612e-05
9.13287e-05
0.000191193
5.90615e-05
0.000228867
0.000206301
0.000131688
9.41749e-05
8.88757e-05
8.82952e-05
8.91181e-05
0.000100828
0.000183795
6.15401e-05
0.000253685
0.000261899
0.000200069
0.000128707
9.95491e-05
0.000102802
0.00010439
0.000139552
0.000181358
0.113359
0.0147881
0.0129835
0.0129808
0.0129803
0.0129802
0.01298
0.0129835
0.0147834
0.113275
0.0394075
0.000555972
0.000187498
0.000185274
0.000185646
0.000185769
0.000186158
0.000187617
0.000557041
0.0391973
0.0166485
0.000216308
1.62584e-06
1.45207e-06
4.30003e-06
4.70975e-06
4.75655e-06
1.63376e-06
0.000191074
0.0165632
0.00839572
0.00012448
9.232e-08
2.65391e-08
2.85226e-07
2.32311e-07
1.4118e-07
1.00411e-07
0.000117658
0.00832735
0.0048616
7.87418e-05
3.55471e-07
1.25867e-07
3.12527e-07
3.34066e-07
3.26331e-07
4.54249e-07
8.38146e-05
0.00480899
0.0031164
5.85653e-05
3.79267e-07
2.55558e-07
1.35546e-07
2.40471e-07
2.27398e-07
6.29432e-07
5.03168e-05
0.0030907
0.00216086
3.77889e-05
1.54055e-07
2.05951e-07
5.94619e-08
1.34811e-07
1.69951e-07
4.88694e-07
3.77708e-05
0.00214979
0.00158896
2.64083e-05
6.76835e-08
1.7649e-07
8.25191e-08
1.07142e-07
1.38956e-07
4.34887e-07
3.22744e-05
0.00158423
0.00122307
1.91122e-05
6.06185e-08
1.53505e-07
7.81003e-08
1.07408e-07
1.31937e-07
4.28259e-07
2.39192e-05
0.00122304
0.000974779
1.72801e-05
7.85675e-08
1.37682e-07
1.68579e-07
1.09541e-07
1.55557e-07
4.13413e-07
1.90943e-05
0.000978105
0.000800177
1.44045e-05
1.11247e-07
1.44902e-07
9.76884e-07
1.08723e-07
1.32885e-07
2.51832e-07
1.38515e-05
0.000804082
0.000672195
1.55892e-05
1.24232e-07
1.53878e-07
2.71258e-06
1.41634e-07
1.42686e-07
1.32456e-06
3.6693e-05
0.000677946
0.000575927
3.318e-05
1.73519e-07
2.11139e-07
1.89408e-07
1.5157e-07
1.62574e-07
7.20034e-07
6.0696e-05
0.000583449
0.000501501
4.97401e-05
2.28119e-07
2.42778e-07
4.78221e-07
1.79501e-07
1.97419e-07
9.33068e-07
7.47824e-05
0.000510888
0.000442635
6.31988e-05
3.85583e-07
6.08655e-07
9.61243e-07
2.74691e-07
2.74422e-07
1.97602e-06
7.95539e-05
0.000453347
0.000394666
6.30627e-05
3.12078e-07
1.10249e-06
1.40096e-06
1.41263e-07
2.83798e-07
1.80603e-06
7.88388e-05
0.000407491
0.000355032
6.96794e-05
1.69833e-06
1.57675e-06
1.69899e-06
8.06115e-07
7.00148e-07
2.04733e-06
7.47914e-05
0.000369323
0.000321624
7.58338e-05
3.38873e-06
1.98732e-06
1.89622e-06
1.15911e-06
1.32753e-06
2.41356e-06
6.96786e-05
0.000338506
0.000292879
8.11097e-05
5.11089e-06
2.20093e-06
2.05737e-06
1.56916e-06
1.83278e-06
2.69858e-06
6.37667e-05
0.000311459
0.000267674
8.52563e-05
7.47151e-06
2.60509e-06
2.20279e-06
1.99589e-06
2.26409e-06
3.20484e-06
5.83325e-05
0.000289986
0.000245065
9.0851e-05
9.64451e-06
2.93571e-06
2.327e-06
2.28224e-06
2.5249e-06
3.49893e-06
5.2643e-05
0.000269598
0.000224306
9.69921e-05
1.27553e-05
3.56054e-06
2.50758e-06
2.51489e-06
2.69145e-06
3.5717e-06
4.77821e-05
0.000254306
0.000204795
0.000105066
1.57927e-05
4.23921e-06
2.74019e-06
2.79189e-06
2.91714e-06
3.85881e-06
4.26503e-05
0.000237778
0.00018587
0.000114342
2.05913e-05
5.3016e-06
3.09062e-06
3.03357e-06
3.13111e-06
4.02825e-06
3.82679e-05
0.000226625
0.000167306
0.000128344
2.6875e-05
6.95367e-06
3.61519e-06
3.43972e-06
3.48547e-06
4.25468e-06
3.35382e-05
0.000211793
0.00014844
0.000138334
3.98462e-05
9.55421e-06
4.47697e-06
3.91865e-06
3.86433e-06
4.30958e-06
2.93089e-05
0.000202883
0.000128937
0.000146161
5.66267e-05
1.42372e-05
6.0026e-06
4.74239e-06
4.52734e-06
4.71459e-06
2.49229e-05
0.000187525
0.000108292
0.000157706
8.13162e-05
2.14327e-05
8.29541e-06
6.21519e-06
5.52749e-06
5.42441e-06
2.09985e-05
0.000176765
8.85302e-05
0.000173277
0.000111635
3.57387e-05
1.32261e-05
8.18347e-06
7.43677e-06
7.21075e-06
1.90655e-05
0.000155979
7.37868e-05
0.000193402
0.000153855
6.41989e-05
2.40144e-05
1.24726e-05
9.38795e-06
9.31562e-06
2.09488e-05
0.00013839
0.113285
0.0147818
0.0129808
0.0129783
0.0129785
0.0129785
0.0129783
0.01298
0.0147771
0.113198
0.0392264
0.000551284
0.00018539
0.000183189
0.000182929
0.000182952
0.00018322
0.000186241
0.000550857
0.0390238
0.0165276
0.000186915
1.8707e-06
1.37988e-06
1.34835e-06
1.49122e-06
1.39344e-06
4.67426e-06
0.000185873
0.016435
0.00831443
0.0001168
5.59219e-08
6.56298e-09
5.3425e-09
3.07359e-09
7.2576e-09
1.33351e-07
0.000115029
0.00824928
0.00480207
8.12123e-05
6.90236e-08
1.41138e-11
1.37919e-11
6.00888e-13
2.79211e-11
2.4724e-07
7.9667e-05
0.00476091
0.00307845
5.46933e-05
2.7062e-07
1.72943e-10
2.59078e-11
8.45582e-11
1.83951e-10
1.74516e-07
5.23097e-05
0.0030576
0.00213492
3.50268e-05
1.76871e-07
1.83775e-10
2.28916e-11
1.41145e-10
4.59222e-10
1.26153e-07
3.4482e-05
0.00212695
0.00156929
3.27946e-05
1.33513e-07
2.08265e-10
5.2421e-11
1.28209e-10
4.2853e-10
1.07534e-07
2.78134e-05
0.00157037
0.00120641
2.77567e-05
1.3502e-07
3.86511e-10
6.55984e-09
1.78261e-10
5.45658e-10
1.40702e-07
2.30529e-05
0.00121209
0.000962797
2.35202e-05
1.80381e-07
5.42116e-10
1.41183e-08
2.96009e-10
5.64443e-10
1.15596e-07
1.84255e-05
0.00097097
0.00079043
1.33059e-05
1.36236e-07
7.73338e-10
9.22504e-11
3.30872e-10
5.27266e-10
1.0737e-07
1.22108e-05
0.000800171
0.000664554
3.21567e-05
2.01574e-07
2.57975e-09
4.54411e-10
3.52395e-10
5.79078e-10
1.13526e-07
2.07866e-05
0.000675482
0.000570109
5.67041e-05
7.2445e-07
2.88424e-09
2.5138e-09
5.77094e-10
7.61864e-10
1.30094e-07
3.58454e-05
0.000582087
0.000496884
7.02697e-05
1.53084e-06
1.13335e-08
1.9865e-09
5.25649e-10
9.01795e-10
1.62905e-07
4.86972e-05
0.000510403
0.000438731
8.17925e-05
2.19974e-06
2.08692e-08
4.1117e-09
6.17773e-10
1.08141e-09
2.21621e-07
5.61716e-05
0.000453343
0.000391243
7.77495e-05
3.1217e-06
5.25844e-08
8.24246e-09
6.83949e-10
1.22261e-09
2.66708e-07
5.96474e-05
0.000407941
0.00035197
8.00612e-05
3.84219e-06
7.99309e-08
1.22028e-08
1.091e-09
1.72506e-09
6.70705e-07
5.95567e-05
0.000370009
0.000318852
8.27839e-05
5.09524e-06
1.53492e-07
1.707e-08
1.84223e-09
2.1303e-09
6.4972e-07
5.83312e-05
0.000339577
0.000290402
8.78017e-05
6.08184e-06
2.16026e-07
2.37464e-08
9.82789e-10
5.75892e-09
7.63354e-07
5.54091e-05
0.000312648
0.000265506
9.23776e-05
7.84076e-06
3.68101e-07
3.14585e-08
7.94782e-09
1.48279e-08
9.58669e-07
5.26655e-05
0.000291567
0.000243155
9.65915e-05
9.29685e-06
5.11327e-07
5.18687e-08
1.61305e-08
2.62911e-08
1.08784e-06
4.86594e-05
0.000271223
0.000222801
0.000102158
1.21489e-05
8.53772e-07
6.93959e-08
2.67212e-08
3.36441e-08
1.11751e-06
4.52045e-05
0.000256342
0.000203569
0.00010769
1.47072e-05
1.23659e-06
1.35877e-07
3.57539e-08
4.39684e-08
1.04638e-06
4.04223e-05
0.000239734
0.000185324
0.000119447
1.98345e-05
2.03076e-06
1.96818e-07
6.16656e-08
5.5943e-08
9.47346e-07
3.63944e-05
0.000228878
0.000167315
0.000127419
2.49514e-05
3.18989e-06
4.28816e-07
7.96496e-08
6.83233e-08
8.02616e-07
3.09619e-05
0.000213728
0.000149226
0.000134086
3.37211e-05
4.94078e-06
6.57871e-07
1.62256e-07
1.03527e-07
6.72343e-07
2.66422e-05
0.000204545
0.000130855
0.000138128
4.85643e-05
8.02355e-06
1.40438e-06
2.44292e-07
1.25202e-07
5.30007e-07
2.08691e-05
0.000189101
0.00011193
0.000144296
6.78562e-05
1.35204e-05
2.36963e-06
5.63479e-07
2.4799e-07
4.45341e-07
1.69484e-05
0.000175245
9.29371e-05
0.000153962
8.8841e-05
2.32794e-05
5.01823e-06
1.0455e-06
3.37095e-07
4.91043e-07
1.15865e-05
0.000156033
7.4069e-05
0.000164009
0.000115924
3.66423e-05
9.40678e-06
2.53018e-06
8.66724e-07
5.58846e-07
1.00375e-05
0.000127395
0.113266
0.0147833
0.0129804
0.0129785
0.0129785
0.0129785
0.0129785
0.0129801
0.0147786
0.11318
0.0391701
0.000551345
0.000185519
0.000182938
0.000182355
0.000182376
0.000182973
0.000185931
0.000550856
0.0389686
0.0164742
0.000186758
3.9423e-06
1.35275e-06
1.3399e-06
1.33353e-06
1.38272e-06
4.75616e-06
0.00018621
0.0163819
0.00827401
0.000117362
1.10391e-07
4.37764e-09
3.58521e-09
4.96379e-09
3.36694e-09
1.21591e-07
0.000115814
0.00820961
0.00477163
8.18182e-05
1.70425e-07
1.35116e-11
1.89113e-12
1.68739e-12
9.9017e-13
2.6665e-07
8.04215e-05
0.0047321
0.00305549
5.53886e-05
2.10181e-07
1.56493e-10
1e-15
1e-15
8.01108e-11
1.73266e-07
5.37084e-05
0.00303531
0.00211748
3.50329e-05
1.52421e-07
1.69679e-10
1.15419e-14
4.65476e-15
1.71929e-10
1.25941e-07
3.31345e-05
0.00211038
0.00155567
3.28462e-05
1.49235e-07
2.40233e-10
1.11261e-13
7.74729e-14
1.33788e-10
1.36292e-07
3.13095e-05
0.00155631
0.00119505
2.81959e-05
1.73661e-07
5.0188e-10
5.57208e-13
2.66614e-13
3.65898e-10
2.15311e-07
2.69163e-05
0.00119879
0.00095406
2.33648e-05
1.7567e-07
7.27166e-10
2.86173e-12
6.52525e-13
3.15427e-10
1.86187e-07
2.17468e-05
0.000960355
0.000782925
1.27773e-05
1.92516e-07
6.42123e-10
2.78606e-12
8.22845e-13
3.13999e-10
1.68779e-07
1.11725e-05
0.000791048
0.000658345
3.25457e-05
2.4636e-07
1.13507e-09
6.98377e-12
8.67762e-13
3.72348e-10
1.69857e-07
2.93563e-05
0.000668573
0.000565035
5.63832e-05
3.53284e-07
1.68056e-09
9.91576e-12
1.47064e-12
5.14639e-10
1.73518e-07
4.75955e-05
0.000576582
0.000492825
7.3029e-05
5.22368e-07
1.96996e-09
8.79615e-12
1.70613e-12
5.17271e-11
1.89971e-07
5.92038e-05
0.000505755
0.000435287
7.8937e-05
1.48634e-06
1.83695e-09
2.47048e-11
2.1658e-12
1.79725e-09
2.41023e-07
6.3906e-05
0.000449301
0.000388564
8.41708e-05
2.42832e-06
2.07388e-08
1.59632e-11
4.57098e-12
8.73336e-10
3.74427e-07
6.47819e-05
0.000404302
0.000349754
8.26572e-05
3.22247e-06
4.51709e-08
6.94697e-10
7.64215e-12
3.53805e-09
8.902e-07
6.30061e-05
0.000366673
0.000317051
8.58975e-05
4.51914e-06
1.05089e-07
2.06772e-09
1.4576e-11
4.61143e-09
8.53893e-07
6.03971e-05
0.000336482
0.000288951
8.89367e-05
5.4952e-06
1.72177e-07
3.93174e-09
5.88554e-11
5.74242e-09
1.13147e-06
5.66115e-05
0.00030979
0.000264315
9.19327e-05
7.2635e-06
2.92675e-07
1.24481e-08
6.59061e-11
6.49846e-09
1.27601e-06
5.28323e-05
0.000288887
0.0002423
9.48537e-05
8.66507e-06
4.49335e-07
1.67883e-08
9.46045e-10
6.96672e-09
1.28291e-06
4.82019e-05
0.000268694
0.000222117
9.87602e-05
1.1378e-05
7.3645e-07
4.76656e-08
6.70965e-10
7.12358e-09
1.20739e-06
4.39457e-05
0.000253883
0.000203167
0.000104353
1.37394e-05
1.10973e-06
6.5549e-08
6.27482e-09
7.30725e-09
1.08781e-06
3.88855e-05
0.000237311
0.000184921
0.000110266
1.83933e-05
1.81514e-06
1.73669e-07
8.67279e-09
7.78335e-09
9.26186e-07
3.4485e-05
0.000226431
0.000166983
0.000121399
2.29215e-05
2.84635e-06
2.63377e-07
3.64988e-08
9.74263e-09
7.61037e-07
2.9138e-05
0.000211197
0.000149015
0.000130796
3.20955e-05
4.56486e-06
6.52142e-07
5.68176e-08
1.67866e-08
5.81472e-07
2.48338e-05
0.000202218
0.000130645
0.000137367
4.83121e-05
7.77788e-06
1.05047e-06
1.93032e-07
2.64313e-08
4.30151e-07
1.93213e-05
0.00018549
0.000111425
0.000144283
6.82476e-05
1.4101e-05
2.51207e-06
3.49705e-07
6.35455e-08
2.84404e-07
1.56201e-05
0.000175228
9.18341e-05
0.000154937
8.99386e-05
2.25216e-05
4.65143e-06
1.03167e-06
3.01836e-07
2.8598e-07
1.04705e-05
0.00014984
7.14598e-05
0.000164023
0.000117098
3.77414e-05
9.77255e-06
2.31601e-06
5.41141e-07
2.72041e-07
8.88612e-06
0.000134771
0.113265
0.0147833
0.0129801
0.0129782
0.0129785
0.0129785
0.0129784
0.0129802
0.0147786
0.11318
0.0391699
0.000551505
0.000185806
0.000182721
0.000182373
0.000182385
0.000182956
0.000185867
0.000550857
0.0389689
0.0164746
0.000185475
4.7908e-06
1.56093e-06
1.33728e-06
1.33407e-06
1.35006e-06
4.63628e-06
0.000186277
0.016382
0.00827557
0.00011961
1.61935e-07
4.74092e-09
2.9601e-09
5.08406e-09
4.81729e-09
2.39431e-07
0.000116047
0.00821002
0.00477117
8.36859e-05
2.37933e-07
2.5354e-12
1.28297e-12
1.7692e-12
3.12338e-12
2.25582e-07
8.06665e-05
0.00473249
0.00305645
5.13036e-05
2.32098e-07
3.60868e-11
1e-15
1e-15
7.42268e-11
1.72567e-07
5.39448e-05
0.00303545
0.00211773
3.30961e-05
1.86475e-07
1.42702e-10
3.01041e-14
4.06616e-14
1.36573e-10
1.23477e-07
3.36036e-05
0.00211064
0.00155722
2.43405e-05
1.85877e-07
3.34545e-10
2.90893e-13
1.39647e-13
1.92554e-10
1.49664e-07
3.13169e-05
0.0015558
0.00119752
2.20919e-05
1.40102e-07
4.12501e-10
5.6755e-13
5.93891e-13
1.66541e-10
6.09638e-08
2.63247e-05
0.00120011
0.000955307
1.92212e-05
1.28999e-07
4.3149e-10
2.90633e-12
1.00949e-12
2.21392e-10
1.33106e-07
2.39459e-05
0.000959251
0.000783864
1.82141e-05
1.5455e-07
6.37711e-10
2.3742e-12
1.43661e-12
3.17039e-10
2.61817e-07
1.18686e-05
0.000789499
0.000658986
2.32164e-05
1.73905e-07
8.86284e-10
9.27721e-12
2.19145e-12
6.78854e-10
6.00575e-07
2.60284e-05
0.000667394
0.000564842
3.59225e-05
2.18244e-07
1.19444e-09
1.31375e-11
2.90257e-12
9.61735e-10
7.93521e-07
4.46429e-05
0.00057584
0.000492645
6.50592e-05
3.01474e-07
2.41209e-09
1.69059e-11
6.27417e-12
1.90071e-09
1.07605e-06
5.77327e-05
0.000505348
0.000435006
7.14137e-05
4.62775e-07
3.03358e-09
4.63773e-11
1.03305e-11
2.93945e-09
1.1591e-06
6.309e-05
0.0004491
0.000388528
8.50651e-05
6.23201e-07
5.08943e-09
5.5516e-11
1.9722e-11
3.7186e-09
1.21289e-06
6.38665e-05
0.000404239
0.000349814
8.38131e-05
1.03619e-06
7.59324e-09
2.15768e-10
3.52059e-11
4.20391e-09
1.26319e-06
6.15337e-05
0.000366671
0.000317198
8.68042e-05
3.00051e-06
5.64204e-09
1.65115e-09
1.59561e-11
4.59781e-09
1.25985e-06
5.83567e-05
0.000336497
0.000289152
9.0054e-05
4.88074e-06
8.04846e-08
2.32738e-09
1.5741e-10
4.99299e-09
1.27192e-06
5.41152e-05
0.00030971
0.000264584
9.61736e-05
6.96789e-06
2.20894e-07
4.99534e-09
3.1062e-09
5.35604e-09
1.22295e-06
5.03958e-05
0.000288786
0.00024265
0.000101776
9.22958e-06
4.35243e-07
1.38251e-08
8.07561e-10
5.66906e-09
1.12862e-06
4.59418e-05
0.000268425
0.000222524
0.000106551
1.15958e-05
6.88181e-07
4.17633e-08
8.29842e-10
5.75306e-09
1.04269e-06
4.22748e-05
0.000253695
0.000203682
0.000111887
1.53038e-05
1.20901e-06
6.83004e-08
5.91411e-09
5.98099e-09
9.42629e-07
3.76258e-05
0.000236992
0.000185463
0.000117885
1.90585e-05
1.88778e-06
1.82001e-07
8.53957e-09
6.78485e-09
8.20709e-07
3.38072e-05
0.000226262
0.000167617
0.000128396
2.46784e-05
2.93177e-06
2.73275e-07
3.43487e-08
8.49264e-09
6.92067e-07
2.87147e-05
0.000211103
0.000149786
0.000137063
3.70295e-05
4.96594e-06
6.66938e-07
5.42021e-08
1.03337e-08
5.37738e-07
2.47308e-05
0.000201931
0.000131576
0.00014325
5.29475e-05
8.78322e-06
1.21658e-06
2.0017e-07
3.24298e-08
4.15412e-07
1.92948e-05
0.000186227
0.000112422
0.000149054
7.13498e-05
1.4109e-05
2.65483e-06
3.66069e-07
3.14676e-08
2.70426e-07
1.56766e-05
0.000173442
9.28214e-05
0.000157623
9.15147e-05
2.37626e-05
4.81729e-06
1.04732e-06
2.53153e-07
2.56808e-07
1.05144e-05
0.000152167
7.22306e-05
0.000164215
0.000116432
3.65976e-05
9.51092e-06
2.21563e-06
5.14873e-07
2.60648e-07
9.06435e-06
0.000127533
0.113284
0.0147818
0.01298
0.012978
0.0129785
0.0129784
0.012978
0.01298
0.0147771
0.113199
0.0392252
0.000551503
0.000186161
0.000183118
0.000182951
0.000182868
0.00018317
0.000186309
0.000550886
0.0390245
0.0165288
0.000185222
4.79278e-06
1.66217e-06
1.35288e-06
1.38904e-06
1.66047e-06
4.77005e-06
0.000186059
0.0164361
0.00831765
0.000118782
1.54906e-07
1.69827e-08
5.40206e-09
5.78616e-09
1.66056e-08
1.17962e-07
0.000115668
0.0082518
0.00480166
8.46528e-05
2.92885e-07
5.33288e-12
8.56026e-12
1.32534e-12
2.17706e-10
2.39383e-07
8.02439e-05
0.00476355
0.00307959
4.95903e-05
2.62067e-07
2.73115e-10
7.21168e-12
8.62845e-11
3.88527e-12
1.7012e-07
5.32221e-05
0.0030589
0.00213522
3.16959e-05
1.70339e-07
2.46899e-10
2.52032e-10
1.38336e-10
2.12751e-10
1.26135e-07
3.44204e-05
0.00212799
0.0015709
2.32149e-05
1.37869e-07
3.20416e-10
1.44474e-10
1.36551e-10
2.27869e-10
1.23913e-07
2.92442e-05
0.0015705
0.0012084
2.17417e-05
1.11586e-07
5.46682e-10
3.4864e-10
4.02329e-10
1.36375e-10
1.73825e-07
2.47818e-05
0.00121185
0.000964109
1.91024e-05
1.19477e-07
9.23148e-10
4.09156e-10
4.21978e-10
2.99961e-10
1.29463e-07
1.98851e-05
0.000970337
0.000791175
2.05889e-05
1.36828e-07
1.00888e-09
7.88827e-10
5.63242e-10
5.21803e-10
1.20444e-07
1.20362e-05
0.000799364
0.000664865
3.2097e-05
1.60921e-07
1.29584e-09
1.20569e-09
8.74692e-10
1.25017e-09
1.35293e-07
2.43312e-05
0.000674726
0.000570308
6.27942e-05
2.35763e-07
2.42435e-09
1.57277e-09
9.7108e-11
6.78334e-10
1.63564e-07
4.36477e-05
0.000581429
0.000496663
5.72563e-05
2.92617e-07
3.07554e-09
1.8546e-09
3.7188e-09
7.4131e-09
1.95921e-07
5.77038e-05
0.00050998
0.000438582
7.51105e-05
4.08347e-07
5.31028e-09
1.95914e-09
7.62337e-09
1.38081e-08
3.11246e-07
6.42113e-05
0.000453153
0.000391555
8.93333e-05
7.07767e-07
6.52642e-09
1.93191e-09
1.27128e-08
1.99987e-08
7.78771e-07
6.58485e-05
0.000407896
0.000352333
8.77893e-05
7.73793e-07
6.72445e-09
1.00341e-08
1.50053e-08
2.40756e-08
7.302e-07
6.39697e-05
0.000370072
0.000319288
9.13855e-05
1.67245e-06
1.26516e-08
9.54494e-09
1.8874e-08
2.81786e-08
8.73673e-07
6.12691e-05
0.000339624
0.000290909
9.55161e-05
3.08359e-06
2.34513e-08
1.90373e-08
2.15171e-08
3.17572e-08
1.08511e-06
5.75205e-05
0.000312713
0.000265959
9.81493e-05
5.78327e-06
1.66277e-07
3.13072e-08
2.58922e-08
3.73933e-08
1.28045e-06
5.4201e-05
0.000291583
0.000243715
0.000105228
8.08641e-06
3.56127e-07
4.61699e-08
3.12628e-08
4.14293e-08
1.34982e-06
5.00542e-05
0.000271249
0.000223347
0.000108145
1.13903e-05
7.16464e-07
8.54767e-08
3.98413e-08
5.03653e-08
1.32884e-06
4.64294e-05
0.000256403
0.000204067
0.000108279
1.38871e-05
1.12122e-06
1.20998e-07
4.96884e-08
5.61637e-08
1.2336e-06
4.16791e-05
0.000239831
0.000185533
0.000112505
1.86131e-05
1.85265e-06
2.46816e-07
7.24965e-08
7.21682e-08
1.10644e-06
3.76216e-05
0.000229044
0.000167373
0.00012192
2.28072e-05
2.94642e-06
3.81043e-07
1.03086e-07
8.04509e-08
9.45999e-07
3.21665e-05
0.000214199
0.0001493
0.000131135
3.24688e-05
4.50331e-06
8.02504e-07
1.98631e-07
1.24807e-07
7.84196e-07
2.78895e-05
0.00020476
0.000131044
0.000137273
4.81544e-05
8.05367e-06
1.25173e-06
2.84316e-07
1.49266e-07
6.48227e-07
2.1917e-05
0.000189961
0.000112244
0.000144467
6.87316e-05
1.32771e-05
2.6248e-06
6.47932e-07
2.90995e-07
4.84267e-07
1.80945e-05
0.000177311
9.34567e-05
0.000155372
9.05096e-05
2.43095e-05
4.91627e-06
1.10911e-06
3.95785e-07
6.54735e-07
1.23393e-05
0.000156432
7.48081e-05
0.000165775
0.000118928
3.80022e-05
9.88393e-06
2.7447e-06
9.60424e-07
6.72438e-07
1.07544e-05
0.000134554
0.113359
0.0147882
0.0129834
0.0129801
0.0129801
0.0129801
0.0129801
0.0129833
0.0147835
0.113275
0.0393972
0.000557836
0.000187593
0.000186181
0.000185928
0.000185949
0.000186196
0.000187683
0.000557136
0.0391972
0.0166603
0.000192351
1.74887e-06
4.36212e-06
4.77103e-06
4.72923e-06
4.56735e-06
2.06379e-06
0.000191983
0.0165658
0.00840869
0.000121745
1.03291e-07
9.73384e-08
1.31227e-07
1.17371e-07
2.84492e-07
3.7791e-07
0.000118452
0.00833959
0.00486204
8.49355e-05
4.09494e-07
2.54811e-07
2.65576e-07
2.67644e-07
1.91454e-07
6.73295e-07
8.44686e-05
0.00482086
0.00311725
5.70376e-05
5.16938e-07
1.9547e-07
1.69479e-07
2.0459e-07
1.49535e-07
4.22861e-07
5.39653e-05
0.00309728
0.00216107
3.60621e-05
4.29884e-07
1.45623e-07
1.26322e-07
1.32967e-07
1.10481e-07
2.69622e-07
3.44833e-05
0.00215423
0.0015879
3.11878e-05
3.45001e-07
1.32678e-07
8.94656e-08
1.19797e-07
1.2811e-07
2.20852e-07
2.52877e-05
0.00158983
0.00121998
2.6234e-05
2.76729e-07
1.74536e-07
1.10948e-07
1.52158e-07
1.87312e-07
2.54193e-07
2.1413e-05
0.00122628
0.000973023
2.24516e-05
3.16417e-07
1.28385e-07
1.19009e-07
1.39155e-07
1.54809e-07
2.4171e-07
1.59385e-05
0.00098079
0.000798203
1.15859e-05
2.59512e-07
1.46203e-07
1.62585e-07
1.43953e-07
1.50626e-07
3.0806e-07
1.75105e-05
0.000806256
0.00067104
3.27718e-05
2.72183e-07
1.8729e-07
1.96304e-07
1.69862e-07
2.43624e-07
4.01223e-07
6.83333e-06
0.000678575
0.000575559
5.78218e-05
4.69756e-07
2.15136e-07
2.18671e-07
2.02981e-07
2.28769e-07
5.96228e-07
3.34797e-05
0.000583116
0.00050171
7.37316e-05
3.86262e-07
2.92128e-07
2.81998e-07
2.55543e-07
8.60058e-07
5.19341e-07
5.35366e-05
0.000510116
0.00044293
8.26242e-05
1.43155e-06
2.57488e-07
3.1543e-07
4.30387e-07
1.51259e-06
5.48061e-07
6.19132e-05
0.000452295
0.000395234
8.98409e-05
2.47333e-06
7.37162e-07
3.75083e-07
9.17977e-07
1.97509e-06
1.07222e-06
6.46801e-05
0.000406317
0.000355622
8.95709e-05
3.62926e-06
1.43151e-06
5.18632e-07
1.46207e-06
2.26881e-06
1.58078e-06
6.3834e-05
0.000368125
0.000322249
9.28949e-05
5.25878e-06
2.08675e-06
4.52636e-07
1.87291e-06
2.48309e-06
1.91138e-06
6.16216e-05
0.000337379
0.000293523
9.50676e-05
6.53649e-06
2.34234e-06
1.22308e-06
2.10911e-06
2.6418e-06
2.22839e-06
5.81565e-05
0.000310445
0.000268369
0.000100578
8.52476e-06
3.03029e-06
1.61237e-06
2.39666e-06
2.78127e-06
2.46977e-06
5.46073e-05
0.000289116
0.000245834
0.000103454
1.03953e-05
3.46812e-06
2.31582e-06
2.58181e-06
2.91819e-06
2.77688e-06
5.04335e-05
0.000268907
0.000225044
0.000105321
1.31506e-05
4.42223e-06
2.98071e-06
2.79627e-06
3.01203e-06
3.0783e-06
4.64532e-05
0.000253763
0.000205383
0.000108583
1.60884e-05
4.55959e-06
3.58919e-06
3.09766e-06
3.22185e-06
3.45131e-06
4.19217e-05
0.000237383
0.000186477
0.000117483
2.12515e-05
5.34511e-06
4.13967e-06
3.47386e-06
3.41933e-06
3.55529e-06
3.77165e-05
0.0002263
0.000167881
0.000129385
2.72908e-05
6.7216e-06
4.79271e-06
3.91778e-06
3.77823e-06
3.78265e-06
3.30431e-05
0.000211487
0.000148953
0.000138255
3.92362e-05
9.14224e-06
5.63467e-06
4.59464e-06
4.21502e-06
4.15395e-06
2.87656e-05
0.000202574
0.000129433
0.000145649
5.67413e-05
1.34725e-05
7.00527e-06
5.5671e-06
4.95833e-06
4.77859e-06
2.44697e-05
0.000186637
0.000108806
0.000156971
8.12665e-05
2.0886e-05
9.98332e-06
7.10589e-06
6.00111e-06
5.52661e-06
2.06992e-05
0.000177584
8.90945e-05
0.000173295
0.000112325
3.59401e-05
1.35907e-05
9.40288e-06
7.80622e-06
7.42278e-06
1.88841e-05
0.000154017
7.44162e-05
0.000193619
0.000154545
6.52268e-05
2.65011e-05
1.42233e-05
1.00941e-05
9.42424e-06
2.12014e-05
0.000141035
0.113691
0.0167135
0.0147839
0.0147776
0.014779
0.014779
0.0147775
0.0147839
0.0167088
0.113609
0.0396161
0.00117738
0.000557579
0.000551236
0.000551325
0.000551192
0.000551194
0.000557442
0.0011749
0.0394229
0.0166979
0.000591161
0.000189502
0.000186336
0.000185181
0.000186783
0.000186572
0.000192456
0.000592967
0.0165727
0.00844255
0.000321799
0.000122162
0.00011595
0.000118537
0.000116651
0.000116376
0.000119125
0.000324428
0.00831131
0.004877
0.000224193
8.26329e-05
8.06787e-05
8.43333e-05
8.1967e-05
8.09982e-05
8.52014e-05
0.00021821
0.00478878
0.00312171
0.000145802
4.62602e-05
5.31457e-05
4.86704e-05
5.385e-05
5.38751e-05
5.4949e-05
0.00015351
0.00306617
0.00215697
9.24696e-05
2.93112e-05
3.48036e-05
3.0668e-05
3.54731e-05
3.51601e-05
3.43093e-05
0.000100158
0.00212964
0.00157644
7.82354e-05
2.17086e-05
2.89304e-05
2.21097e-05
2.90399e-05
3.04582e-05
2.71516e-05
9.08819e-05
0.00156072
0.00120447
7.3426e-05
1.64002e-05
2.45485e-05
1.97928e-05
2.41562e-05
2.57167e-05
2.28756e-05
7.84691e-05
0.00119953
0.000953463