/*--------------------------------*- C++ -*----------------------------------*\
| =========                 |                                                 |
| \\      /  F ield         | OpenFOAM: The Open Source CFD Toolbox           |
|  \\    /   O peration     | Version:  4.1                                   |
|   \\  /    A nd           | Web:      www.OpenFOAM.org                      |
|    \\/     M anipulation  |                                                 |
\*---------------------------------------------------------------------------*/
FoamFile
{
    version     2.0;
    format      ascii;
    class       volScalarField;
    location    "1400";
    object      nut;
}
// * * * * * * * * * * * * * * * * * * * * * * * * * * * * * * * * * * * * * //

dimensions      [0 2 -1 0 0 0 0];

internalField   nonuniform List<scalar> 
12000
(
0.00382238
0.00373247
0.00372937
0.00372804
0.00372767
0.00372765
0.00372796
0.00372937
0.00373707
0.00382797
0.00225834
0.0022153
0.00222534
0.00222071
0.00221909
0.00221907
0.00222057
0.00222409
0.00221407
0.00225511
0.00145671
0.00141476
0.0014397
0.00143441
0.00143196
0.00143199
0.00143424
0.00143777
0.00141425
0.00145683
0.00102665
0.00101075
0.0010289
0.00102199
0.00101913
0.00101913
0.00102167
0.00102586
0.00101111
0.00102724
0.000774407
0.000779965
0.000783847
0.000779173
0.000776501
0.000776479
0.000779117
0.000783891
0.000781173
0.000776573
0.00061484
0.00062811
0.00062834
0.000625999
0.000623708
0.000623836
0.000626153
0.000629489
0.00062974
0.000618065
0.000509919
0.000526369
0.000522596
0.000521148
0.00051921
0.000519294
0.000521662
0.000525136
0.000527105
0.000512424
0.000435067
0.000447268
0.000446781
0.000447747
0.000446472
0.00044621
0.000448355
0.000450795
0.000447629
0.000437623
0.000380655
0.000395468
0.00039241
0.000391448
0.00038976
0.000389923
0.00039173
0.000394963
0.00039624
0.000382969
0.000338314
0.000349809
0.000350122
0.000351045
0.000349821
0.000349567
0.00035178
0.000352974
0.000350412
0.000340796
0.000305165
0.000314838
0.000316658
0.00031765
0.000316197
0.000316674
0.000318064
0.000318907
0.000315384
0.000307824
0.000278868
0.000288654
0.000291788
0.000290765
0.000289471
0.000289577
0.000291252
0.000292465
0.000289121
0.000281663
0.00025738
0.000267317
0.000270318
0.000269299
0.000268422
0.000268363
0.000269725
0.000271322
0.000267985
0.000260501
0.000239409
0.000249411
0.000252389
0.000251746
0.000251161
0.000251157
0.000252357
0.000253907
0.000250482
0.000243074
0.000224095
0.000234231
0.000237218
0.000236998
0.00023659
0.000236691
0.000237801
0.000239385
0.000235895
0.000228542
0.000210822
0.000221161
0.000224319
0.000224445
0.000224184
0.000224428
0.000225469
0.00022702
0.000223529
0.000216274
0.000199117
0.00020973
0.000213415
0.000213648
0.000213462
0.000213798
0.000214835
0.000216428
0.000212994
0.000205876
0.000188647
0.000199788
0.000203761
0.000204203
0.000204188
0.000204646
0.00020568
0.000207247
0.000203894
0.000196958
0.000179072
0.000190783
0.000195409
0.000195917
0.000195999
0.000196515
0.000197626
0.000199267
0.000196124
0.000189392
0.0001701
0.000182657
0.00018787
0.000188535
0.000188822
0.000189514
0.000190662
0.000192293
0.00018934
0.000182841
0.000161422
0.000174902
0.000180986
0.000181891
0.000182357
0.000183125
0.000184415
0.000186258
0.000183673
0.000177405
0.000152696
0.00016763
0.000174506
0.000175859
0.000176633
0.000177731
0.000179108
0.000180921
0.00017867
0.000172691
0.000143452
0.000159934
0.000168349
0.000170349
0.000171225
0.000172515
0.000174184
0.000176536
0.000174711
0.00016906
0.000133056
0.000152088
0.00016217
0.000165086
0.000166543
0.000168245
0.000170006
0.000172465
0.000171162
0.000165978
0.000120404
0.000142349
0.000155697
0.000159916
0.000161688
0.00016374
0.000166067
0.000169326
0.000168697
0.00016393
0.000102655
0.000130234
0.00014807
0.000154591
0.000157581
0.000160117
0.000162581
0.000166195
0.000166352
0.000162956
7.61416e-05
0.000112998
0.000138134
0.000147954
0.000151916
0.000155539
0.00015917
0.000163985
0.000165103
0.000161597
6.21327e-05
9.19738e-05
0.000123345
0.000138916
0.000147404
0.000151395
0.000154853
0.000161273
0.000164345
0.000164787
7.19949e-05
8.63732e-05
0.000100028
0.000119534
0.000134452
0.000145322
0.000152123
0.000157643
0.000163707
0.000160199
9.12474e-05
0.00010338
0.000107784
0.000101183
0.000119337
0.000125521
0.000138114
0.000155741
0.000161034
0.000171973
0.00373246
2.73105e-05
2.15409e-05
2.15359e-05
2.15427e-05
2.15427e-05
2.15359e-05
2.15409e-05
2.72753e-05
0.00372955
0.00221532
7.82166e-07
2.38127e-07
2.36229e-07
2.36743e-07
2.36777e-07
2.36245e-07
2.38408e-07
7.79363e-07
0.00218206
0.00141443
5.00569e-07
6.95831e-08
6.93672e-08
6.9672e-08
6.96251e-08
6.94654e-08
7.26837e-08
5.00384e-07
0.00138334
0.00101001
4.27289e-07
7.1621e-08
6.51623e-08
6.66957e-08
6.69538e-08
6.6159e-08
6.89011e-08
4.13884e-07
0.000971893
0.00078011
4.3853e-07
7.48724e-08
7.41285e-08
7.48e-08
7.66177e-08
7.54506e-08
8.30296e-08
4.20512e-07
0.000742086
0.000627951
4.04386e-07
5.23221e-08
7.17625e-08
7.72274e-08
7.66313e-08
7.54633e-08
6.97555e-08
3.84162e-07
0.000598411
0.000526052
5.42671e-07
4.51124e-08
6.79872e-08
6.74153e-08
7.16982e-08
7.01211e-08
8.27718e-08
5.27408e-07
0.000505091
0.000446878
8.82249e-07
7.76457e-08
1.11946e-07
1.41951e-07
1.22102e-07
1.26893e-07
1.43936e-07
7.37116e-07
0.000433581
0.000395017
9.77352e-07
2.93717e-08
1.25732e-07
1.5606e-07
1.43931e-07
1.4168e-07
1.53191e-07
8.75892e-07
0.000385863
0.000349243
9.17071e-07
5.04526e-08
1.56622e-07
1.82409e-07
1.54734e-07
1.82004e-07
1.91937e-07
4.05378e-07
0.000343496
0.000314184
8.33494e-06
5.95692e-08
1.18072e-07
8.10676e-08
1.42347e-07
9.42889e-08
5.64698e-08
6.05235e-06
0.000310395
0.000287794
2.50172e-05
4.57496e-08
8.69501e-07
1.33639e-06
6.40556e-07
1.25186e-06
1.61934e-06
2.26485e-05
0.000285548
0.000266276
4.59981e-05
1.20824e-07
4.46487e-06
5.81793e-06
4.86188e-06
5.31659e-06
8.09602e-06
4.81646e-05
0.000265798
0.000248153
6.84917e-05
2.65425e-07
1.26663e-05
1.39957e-05
1.4224e-05
1.53822e-05
1.98949e-05
7.65409e-05
0.00024947
0.000232725
8.90254e-05
4.33027e-07
2.32193e-05
2.4885e-05
2.60496e-05
2.94901e-05
3.3209e-05
0.000100856
0.000235657
0.000219351
0.000104556
2.62641e-07
3.39846e-05
3.59598e-05
3.68941e-05
4.22158e-05
4.48536e-05
0.000117739
0.000223893
0.000207566
0.0001184
1.28586e-06
4.14463e-05
4.5655e-05
4.60955e-05
5.13437e-05
5.32958e-05
0.000127288
0.000213641
0.00019722
0.000125766
4.20542e-06
4.78161e-05
5.18965e-05
5.25109e-05
5.75942e-05
5.80007e-05
0.000131205
0.000204825
0.000187751
0.000129485
1.61389e-05
5.23512e-05
5.70463e-05
5.70009e-05
6.02009e-05
6.22335e-05
0.000131118
0.00019699
0.00017911
0.00013963
3.55609e-05
5.76801e-05
5.92844e-05
6.09862e-05
6.34051e-05
6.21167e-05
0.000128539
0.00019032
0.000170828
0.000143379
5.82063e-05
6.09204e-05
6.20322e-05
6.17217e-05
6.3243e-05
6.49787e-05
0.00012414
0.000184193
0.000163074
0.000152573
6.68886e-05
6.5573e-05
6.54202e-05
6.42882e-05
6.62707e-05
6.67395e-05
0.000119419
0.000179037
0.000154975
0.000156413
8.1158e-05
7.18345e-05
6.74982e-05
6.84065e-05
6.82586e-05
7.24948e-05
0.0001146
0.000174135
0.000147068
0.000167591
9.58415e-05
7.11209e-05
6.98945e-05
6.80821e-05
7.12964e-05
7.37623e-05
0.000109434
0.000170036
0.000137879
0.000168848
0.000109932
7.70512e-05
7.51403e-05
7.45733e-05
7.08613e-05
7.72907e-05
0.000106011
0.000165834
0.000126923
0.000171531
0.000129463
8.22666e-05
7.53817e-05
7.63282e-05
7.64909e-05
7.22971e-05
0.000101044
0.000162355
0.000113406
0.000182646
0.000138959
9.49846e-05
7.9927e-05
8.20046e-05
7.62605e-05
7.85397e-05
9.69023e-05
0.000159356
9.66468e-05
0.000198244
0.000177298
0.000113064
8.82424e-05
8.89896e-05
8.86265e-05
7.55838e-05
0.000104209
0.000152209
8.60972e-05
0.00021292
0.000203006
0.000143743
0.000104741
0.000103467
0.000100474
9.975e-05
8.48037e-05
0.000156227
8.79858e-05
0.000235624
0.000238028
0.000203859
0.000136158
0.000106577
0.000112562
0.00010755
0.000118396
0.000139525
0.00372936
2.15412e-05
1.6907e-05
1.69109e-05
1.69107e-05
1.69102e-05
1.69076e-05
1.69071e-05
2.15196e-05
0.00372074
0.00222575
2.37751e-07
2.91869e-08
2.88714e-08
2.96242e-08
2.98096e-08
2.99119e-08
2.92327e-08
2.37236e-07
0.00218579
0.0014353
9.17189e-08
1.57111e-10
1.09158e-10
9.76873e-11
9.95235e-11
9.71705e-11
1.58413e-10
7.1138e-08
0.00140864
0.00102225
6.97377e-08
3.40511e-11
2.0924e-11
8.29183e-13
5.71745e-13
3.29318e-13
8.05584e-11
6.3732e-08
0.00099572
0.000785542
6.50544e-08
8.64806e-11
2.30516e-11
1.82318e-12
1.86819e-12
2.54845e-12
1.97363e-10
7.38846e-08
0.000757356
0.000629092
8.12152e-08
1.22126e-10
1.17138e-10
4.00521e-12
2.10898e-12
2.43548e-12
3.09362e-10
5.96799e-08
0.000609603
0.000523837
7.59188e-08
2.6467e-11
1.14763e-10
1.02667e-11
1.54579e-12
2.58896e-12
4.23798e-10
7.87145e-08
0.000512919
0.000449003
8.09624e-08
8.65857e-12
1.8933e-10
2.03354e-10
2.87143e-12
3.70541e-12
5.01964e-10
1.01078e-07
0.000441889
0.000394343
9.94136e-08
1.26242e-11
1.23106e-10
3.71884e-10
6.67335e-12
6.44339e-12
8.10134e-10
1.09456e-07
0.000391291
0.000351418
1.31052e-07
5.56207e-11
1.55574e-10
2.39389e-09
1.55099e-11
1.62811e-11
1.33899e-09
1.2561e-07
0.000350591
0.000318711
1.56776e-07
7.22586e-11
2.36648e-10
9.37403e-08
3.27002e-11
2.34082e-11
9.34675e-10
1.42801e-07
0.000317108
0.000291867
3.14975e-07
1.17841e-10
4.61913e-10
6.82261e-07
7.38724e-11
4.38919e-11
5.81147e-08
1.91387e-06
0.000290836
0.000269775
2.79138e-06
2.85025e-10
1.4128e-09
4.79798e-09
1.44521e-10
1.07597e-10
1.59044e-08
9.1063e-06
0.000269929
0.0002515
1.04443e-05
7.13043e-10
3.55602e-09
3.968e-08
3.75852e-10
2.97085e-10
2.67733e-08
2.19094e-05
0.00025288
0.000236327
2.44488e-05
2.65359e-09
3.54335e-08
2.22276e-07
2.03383e-09
1.0613e-09
1.51055e-07
3.58719e-05
0.000238597
0.000223143
3.14392e-05
2.99559e-09
1.6982e-07
5.91187e-07
1.08943e-09
2.58032e-09
2.0752e-07
4.71648e-05
0.000226571
0.000211683
4.45524e-05
1.65876e-07
5.63241e-07
9.95199e-07
8.0274e-08
3.2013e-08
4.77773e-07
5.38407e-05
0.000216003
0.000201537
5.78637e-05
9.95821e-07
8.65607e-07
1.37424e-06
1.77081e-07
2.15417e-07
9.96935e-07
5.697e-05
0.000207015
0.000192338
6.78657e-05
2.85875e-06
1.13965e-06
1.72687e-06
4.84376e-07
6.51588e-07
1.64767e-06
5.69865e-05
0.000198732
0.000183888
7.56227e-05
6.14602e-06
1.9161e-06
1.99873e-06
1.17165e-06
1.48292e-06
2.80888e-06
5.59211e-05
0.000191856
0.000175952
8.51162e-05
9.61629e-06
2.48646e-06
2.39036e-06
1.8907e-06
1.84678e-06
3.58577e-06
5.32312e-05
0.000185051
0.000168317
9.47993e-05
1.39295e-05
3.70352e-06
2.49767e-06
2.55658e-06
2.21867e-06
3.67371e-06
5.08101e-05
0.00017976
0.000160859
0.000105562
1.82508e-05
4.79748e-06
3.04954e-06
3.25455e-06
2.88325e-06
4.69002e-06
4.71365e-05
0.000173827
0.000153216
0.000117317
2.36545e-05
6.56376e-06
3.24552e-06
3.7132e-06
3.69537e-06
4.93797e-06
4.42008e-05
0.000169692
0.00014538
0.00013413
3.31859e-05
9.12011e-06
4.38969e-06
4.53532e-06
4.01215e-06
5.84987e-06
3.98153e-05
0.000164
0.000136986
0.000141974
5.06186e-05
1.25016e-05
5.5039e-06
5.11219e-06
4.88102e-06
5.02027e-06
3.63136e-05
0.000160456
0.000127749
0.000151033
7.0056e-05
1.8355e-05
8.17459e-06
6.5807e-06
5.45528e-06
6.05438e-06
3.06052e-05
0.00015452
0.000117133
0.000164531
9.60879e-05
2.74946e-05
1.0216e-05
8.43475e-06
7.47995e-06
5.66309e-06
2.69917e-05
0.000148697
0.000105899
0.000178764
0.000130568
4.35735e-05
1.79817e-05
1.11497e-05
9.59368e-06
9.19192e-06
2.06966e-05
0.000141727
9.68498e-05
0.000198494
0.000168711
8.09891e-05
2.88691e-05
1.5768e-05
1.19559e-05
9.67211e-06
2.09618e-05
0.000129478
0.00372804
2.15371e-05
1.6911e-05
1.69161e-05
1.69186e-05
1.69186e-05
1.69161e-05
1.69077e-05
2.15147e-05
0.00371921
0.00222068
2.36458e-07
2.88844e-08
2.84339e-08
2.83925e-08
2.83875e-08
2.84439e-08
2.99044e-08
2.35432e-07
0.00218182
0.00143406
6.97807e-08
1.05987e-10
1.40039e-10
1.24352e-10
1.24884e-10
1.40539e-10
9.73178e-11
6.88507e-08
0.00140612
0.00102127
6.6198e-08
1.02967e-12
7.84622e-14
3.10717e-14
3.5646e-13
6.60592e-14
2.85854e-13
6.41431e-08
0.000994872
0.000778732
7.38136e-08
5.13531e-12
2.51119e-17
1.11397e-18
7.88889e-18
1.35134e-17
1.66913e-12
7.10206e-08
0.00075647
0.000625764
7.6274e-08
9.99643e-11
3.83111e-14
9.08349e-16
9.92065e-17
4.85009e-16
2.52043e-12
6.97258e-08
0.000609343
0.000520951
6.95777e-08
2.3473e-10
5.7112e-14
1.93918e-14
3.32276e-16
1.88878e-15
2.47766e-12
6.74684e-08
0.000510347
0.000447594
1.45695e-07
5.43305e-10
9.81669e-14
1.96668e-13
2.88918e-16
2.24069e-15
4.44558e-12
1.03119e-07
0.000441175
0.000390706
1.57839e-07
1.04529e-09
3.80804e-13
3.2833e-09
7.25511e-16
6.33515e-15
1.01889e-11
1.17049e-07
0.000388254
0.000350881
2.03218e-07
3.28913e-09
1.66361e-12
1.8077e-08
2.84363e-15
1.45573e-14
1.27178e-11
1.38168e-07
0.000349023
0.000316893
1.14409e-07
2.8034e-09
7.84618e-12
2.38359e-13
6.83698e-15
1.94486e-14
2.06556e-11
1.07262e-07
0.000317141
0.000289675
1.37762e-06
9.57709e-09
1.07157e-10
1.00936e-11
1.52653e-14
3.69711e-14
5.47845e-11
6.49688e-07
0.000291075
0.000267974
7.65867e-06
1.40175e-07
1.59067e-10
3.24181e-10
5.5959e-14
8.89886e-14
1.59505e-10
3.54857e-06
0.000270176
0.000250177
1.87304e-05
4.43998e-07
2.10399e-09
2.05008e-10
8.71272e-14
2.32852e-13
5.58106e-10
1.07728e-05
0.000253129
0.000235273
3.60713e-05
9.29407e-07
4.35638e-09
8.30877e-10
2.30859e-13
5.89986e-13
2.11134e-09
2.12407e-05
0.000238735
0.000222195
4.17644e-05
1.52495e-06
2.10231e-08
3.73963e-09
4.65327e-13
1.48463e-12
6.0906e-09
3.22033e-05
0.000226651
0.000210778
5.17771e-05
2.36217e-06
4.0054e-08
6.58536e-09
2.39376e-12
3.70042e-12
7.66046e-08
4.04011e-05
0.00021602
0.000200689
6.17342e-05
4.07338e-06
1.16402e-07
1.21665e-08
8.27441e-12
1.02135e-11
1.28694e-07
4.62422e-05
0.000207068
0.00019152
7.22035e-05
5.42302e-06
1.84335e-07
2.16048e-08
4.25646e-12
1.58702e-10
2.79529e-07
4.8843e-05
0.000198771
0.00018322
8.1603e-05
7.77587e-06
3.64829e-07
3.06215e-08
5.65604e-10
1.9182e-09
6.06236e-07
5.03798e-05
0.000192
0.000175307
8.88553e-05
9.53162e-06
5.3136e-07
5.98565e-08
3.8303e-09
9.97662e-09
9.87004e-07
4.95105e-05
0.00018521
0.00016787
9.85004e-05
1.32662e-05
9.71152e-07
7.67862e-08
1.70773e-08
1.88777e-08
1.23906e-06
4.84777e-05
0.000180102
0.000160423
0.000106592
1.65238e-05
1.428e-06
1.72226e-07
2.47888e-08
3.91502e-08
1.29318e-06
4.52381e-05
0.000174181
0.000153031
0.000124239
2.30296e-05
2.51807e-06
2.42681e-07
7.88273e-08
5.20414e-08
1.25357e-06
4.22476e-05
0.00017028
0.00014574
0.000134856
3.01245e-05
3.96925e-06
6.13619e-07
7.24023e-08
7.7727e-08
1.10438e-06
3.7128e-05
0.000164658
0.000137745
0.000137795
4.22739e-05
6.47146e-06
8.79748e-07
2.6519e-07
1.25869e-07
9.60376e-07
3.26592e-05
0.00016076
0.000129116
0.000143149
5.81064e-05
1.02772e-05
2.04587e-06
2.4049e-07
1.66354e-07
7.32163e-07
2.61967e-05
0.000156185
0.000119501
0.000150808
7.98999e-05
1.73223e-05
3.18984e-06
9.23739e-07
3.27254e-07
6.99041e-07
2.11263e-05
0.000145113
0.000109044
0.000162516
0.000103672
2.95058e-05
6.90346e-06
1.11008e-06
4.57829e-07
5.56257e-07
1.42311e-05
0.000146556
9.74271e-05
0.000173868
0.000135309
4.68249e-05
1.24221e-05
3.44118e-06
1.13341e-06
6.23613e-07
1.01133e-05
0.000110485
0.00372766
2.15438e-05
1.69109e-05
1.69186e-05
1.69205e-05
1.69206e-05
1.69187e-05
1.69099e-05
2.15214e-05
0.00371887
0.00221904
2.37032e-07
2.95374e-08
2.83887e-08
2.83977e-08
2.83877e-08
2.83876e-08
2.99143e-08
2.36018e-07
0.00218032
0.00143187
6.98186e-08
9.08982e-11
1.28064e-10
9.53382e-11
1.04696e-10
1.39303e-10
9.64776e-11
6.9353e-08
0.00140404
0.00101909
6.76348e-08
4.02281e-13
3.05782e-14
4.70397e-14
4.40938e-14
3.83635e-14
2.86548e-13
6.54729e-08
0.00099278
0.000776134
7.60446e-08
3.15598e-12
2.99289e-18
8.33169e-17
4.11366e-18
2.43137e-18
2.18044e-12
7.29483e-08
0.000754614
0.000623244
7.94836e-08
8.98055e-12
5.04092e-16
3.75808e-20
2.59087e-20
3.73105e-16
2.7716e-12
7.41332e-08
0.000607262
0.00051878
7.08143e-08
1.07352e-11
7.46222e-16
9.96437e-21
1.57201e-21
1.72293e-15
3.29837e-12
6.27811e-08
0.000508546
0.000445787
1.48634e-07
2.33e-11
2.52395e-15
1.23454e-19
1.01506e-19
8.53548e-15
8.6875e-12
1.34043e-07
0.000440374
0.000389156
1.66124e-07
5.78717e-11
1.40197e-14
2.45743e-18
1.15315e-18
6.00205e-14
2.96019e-11
1.48174e-07
0.000386727
0.000349005
2.01999e-07
1.06619e-10
5.23744e-14
9.54851e-17
3.97012e-18
1.06947e-13
3.8829e-11
1.63122e-07
0.000346976
0.00031535
1.05709e-07
2.0216e-10
7.72292e-14
1.55363e-16
6.63572e-18
2.20356e-13
5.996e-11
7.61879e-08
0.000314392
0.000288111
1.40568e-06
6.36989e-10
4.35775e-13
9.94839e-16
1.41797e-17
5.84564e-13
1.43424e-10
1.09182e-06
0.000288713
0.000266638
7.54357e-06
2.32732e-09
1.89276e-12
3.89878e-15
3.9932e-17
1.76287e-12
3.31012e-10
5.26971e-06
0.000268294
0.000249126
2.01734e-05
1.01989e-08
4.75722e-12
7.64706e-15
9.85223e-17
3.7458e-14
8.66534e-10
1.37273e-05
0.000251634
0.000234264
3.38407e-05
1.69619e-07
4.65228e-12
5.63591e-14
3.04759e-16
8.0033e-11
2.97494e-09
2.44943e-05
0.000237556
0.000221495
4.95401e-05
4.52142e-07
9.52717e-10
3.42316e-14
1.49888e-15
3.28429e-11
1.46592e-08
3.50314e-05
0.000225658
0.000210221
5.67701e-05
1.08163e-06
6.40728e-09
6.06242e-11
5.45037e-15
8.66532e-10
1.56355e-07
4.28503e-05
0.000215105
0.00020016
6.79284e-05
2.67672e-06
4.10056e-08
5.56762e-10
2.26371e-14
1.40918e-09
2.41892e-07
4.80483e-05
0.000206184
0.000191175
7.75146e-05
4.28158e-06
1.06294e-07
2.19434e-09
6.56948e-13
3.15367e-09
6.30213e-07
5.01746e-05
0.000197905
0.000182808
8.57561e-05
6.93209e-06
2.51837e-07
1.11089e-08
1.59759e-12
4.56059e-09
1.06724e-06
5.06934e-05
0.000191171
0.00017507
8.90801e-05
8.84572e-06
4.56125e-07
1.69026e-08
2.51984e-10
6.39115e-09
1.34276e-06
4.91507e-05
0.000184408
0.000167683
9.66905e-05
1.25225e-05
8.18496e-07
5.71667e-08
1.08823e-10
7.74481e-09
1.43964e-06
4.70338e-05
0.000179325
0.000160351
0.000104762
1.55054e-05
1.31684e-06
7.65577e-08
7.28215e-09
9.6472e-09
1.41133e-06
4.34046e-05
0.000173404
0.000153037
0.000111783
2.14454e-05
2.23867e-06
2.26049e-07
6.96383e-09
8.8964e-09
1.2671e-06
3.98118e-05
0.000169509
0.000145468
0.000127046
2.68657e-05
3.50937e-06
3.29989e-07
9.55153e-08
1.24439e-08
1.07959e-06
3.47624e-05
0.00016363
0.000137489
0.000133804
4.01259e-05
5.90562e-06
9.26846e-07
4.80976e-08
2.41985e-08
8.52769e-07
3.02621e-05
0.000160495
0.000128861
0.000142701
5.82862e-05
1.0202e-05
1.41761e-06
4.08124e-07
4.53021e-08
6.20915e-07
2.41275e-05
0.000153165
0.000119141
0.000150748
8.10244e-05
1.86649e-05
3.65393e-06
3.49712e-07
7.40897e-08
4.54024e-07
1.93611e-05
0.000149609
0.000108379
0.000164056
0.000105202
2.83794e-05
6.32408e-06
1.76343e-06
1.03771e-06
3.84812e-07
1.28736e-05
0.000136353
9.57645e-05
0.000173249
0.000137349
4.87163e-05
1.3558e-05
2.94327e-06
5.31269e-07
2.80997e-07
8.86318e-06
0.000139279
0.00372764
2.15438e-05
1.69099e-05
1.69175e-05
1.69207e-05
1.69205e-05
1.69185e-05
1.69104e-05
2.15213e-05
0.00371888
0.00221901
2.37325e-07
2.98716e-08
2.85989e-08
2.83983e-08
2.8392e-08
2.84092e-08
2.98125e-08
2.3614e-07
0.00218037
0.00143182
6.88045e-08
9.80193e-11
5.87791e-11
9.85031e-11
1.04334e-10
1.24674e-10
1.00121e-10
6.94868e-08
0.00140408
0.00102025
7.14261e-08
3.62611e-13
2.57087e-14
7.67599e-14
4.37863e-14
4.23791e-14
5.81702e-13
6.59193e-08
0.000992931
0.000775744
8.12908e-08
1.83247e-12
2.34919e-17
8.29296e-17
3.72895e-18
7.4308e-19
9.35245e-13
7.38159e-08
0.000754751
0.000621536
6.98734e-08
3.71015e-12
5.71949e-17
7.39468e-20
1.42057e-20
8.66833e-16
2.68547e-12
7.54428e-08
0.000607454
0.000517259
6.5067e-08
6.62035e-12
1.31802e-15
9.06511e-21
3.87331e-20
1.74207e-15
3.13057e-12
6.51391e-08
0.00050869
0.00044452
8.31312e-08
6.53252e-12
1.96448e-15
7.38823e-19
6.60261e-18
1.38394e-14
9.56291e-12
1.36619e-07
0.000440343
0.000389111
1.18263e-07
7.00639e-12
3.22704e-15
1.67319e-18
5.48448e-17
5.66795e-14
1.85798e-11
1.40122e-07
0.000385648
0.000348733
1.6171e-07
1.38334e-11
3.96593e-15
4.32365e-17
7.4452e-16
3.02638e-13
1.98629e-10
1.95096e-07
0.000348624
0.000315325
2.53293e-07
4.88557e-11
1.80928e-14
4.3385e-17
7.62158e-16
1.18189e-12
1.61774e-09
8.40588e-08
0.000314718
0.000288536
8.34113e-07
8.75386e-11
3.24766e-14
4.58798e-16
3.70738e-15
1.23945e-11
1.79148e-08
8.52315e-07
0.00028825
0.000266423
3.50669e-06
1.89512e-10
9.239e-14
7.94368e-16
5.81193e-15
2.53002e-11
6.29868e-08
4.67056e-06
0.000267853
0.000248929
1.76381e-05
5.39585e-10
4.87529e-13
1.93373e-15
2.76914e-14
2.04374e-10
2.1259e-07
1.31915e-05
0.000251354
0.000233847
2.87218e-05
2.56098e-09
1.52611e-12
2.03803e-14
9.64972e-14
8.05766e-10
4.08313e-07
2.4253e-05
0.000237372
0.000221242
4.99624e-05
5.77195e-09
4.95503e-12
5.06602e-14
2.69805e-13
1.82283e-09
6.68299e-07
3.4774e-05
0.000225558
0.000209988
5.58268e-05
2.77686e-08
1.73871e-11
4.48424e-13
1.98215e-12
2.98511e-09
9.51762e-07
4.19956e-05
0.000215064
0.000200045
6.52569e-05
4.46554e-07
1.81751e-11
3.6451e-11
7.8224e-14
3.42944e-09
1.14961e-06
4.6345e-05
0.000206205
0.000191081
7.48937e-05
1.86374e-06
6.58522e-09
1.32517e-10
7.15882e-12
4.36469e-09
1.35817e-06
4.76294e-05
0.00019791
0.000182801
8.77534e-05
4.64874e-06
6.95389e-08
5.4253e-10
2.52114e-09
5.41606e-09
1.42059e-06
4.79409e-05
0.000191179
0.000175161
9.7028e-05
8.27022e-06
2.94111e-07
5.52147e-09
1.98717e-10
6.5949e-09
1.36951e-06
4.64031e-05
0.000184321
0.000167752
0.000105682
1.17908e-05
6.19881e-07
2.94915e-08
5.97895e-10
6.65896e-09
1.32312e-06
4.49316e-05
0.000179212
0.000160601
0.00011165
1.74111e-05
1.35315e-06
6.81461e-08
4.26468e-09
7.29687e-09
1.24846e-06
4.17679e-05
0.000173241
0.000153297
0.000120831
2.18453e-05
2.33412e-06
2.11798e-07
9.07737e-09
9.11988e-09
1.12567e-06
3.89345e-05
0.000169256
0.000145739
0.000135046
2.96323e-05
3.5289e-06
3.39154e-07
3.83837e-08
1.03276e-08
9.79705e-07
3.42193e-05
0.00016365
0.000137728
0.00014116
4.93383e-05
6.64458e-06
8.72782e-07
7.17159e-08
1.00518e-08
7.80978e-07
3.01198e-05
0.000159852
0.0001293
0.000149939
6.53809e-05
1.20743e-05
1.74569e-06
2.58201e-07
4.56724e-08
6.00324e-07
2.41926e-05
0.00015443
0.000119863
0.000157063
8.57318e-05
1.81574e-05
3.69053e-06
5.32896e-07
1.72015e-08
4.22264e-07
1.92405e-05
0.00014581
0.000109366
0.000167565
0.000107454
3.09279e-05
6.50564e-06
1.31478e-06
7.21771e-07
3.183e-07
1.34776e-05
0.000142763
9.66914e-05
0.000173796
0.000136494
4.63712e-05
1.27219e-05
2.93215e-06
4.96403e-07
2.84819e-07
8.72687e-06
0.000116511
0.00372794
2.15371e-05
1.69075e-05
1.69148e-05
1.69187e-05
1.69185e-05
1.69149e-05
1.69076e-05
2.15148e-05
0.00371923
0.00222049
2.36765e-07
2.99184e-08
2.87034e-08
2.84027e-08
2.84016e-08
2.87111e-08
2.99673e-08
2.35582e-07
0.00218194
0.00143409
6.85204e-08
9.81767e-11
5.52447e-11
1.27628e-10
1.41195e-10
5.55317e-11
9.69483e-11
6.91954e-08
0.00140638
0.00102284
7.02405e-08
3.46902e-13
3.50467e-14
3.77677e-14
7.44758e-14
3.67759e-14
2.74478e-13
6.53853e-08
0.000995583
0.000778334
8.2881e-08
2.89326e-12
7.82765e-20
2.92896e-18
3.2352e-19
1.82699e-17
2.04766e-12
7.29078e-08
0.000757482
0.000623735
6.51815e-08
5.16298e-12
7.44504e-16
1.02031e-17
1.96691e-15
6.64832e-19
3.19659e-12
7.32868e-08
0.000610089
0.000519203
5.95749e-08
4.65863e-12
9.44864e-16
1.21333e-15
1.67216e-15
1.64788e-15
3.28738e-12
6.83201e-08
0.000511046
0.000446266
7.57169e-08
8.21431e-12
1.69433e-15
2.8294e-15
7.8026e-15
1.24602e-14
8.18901e-12
1.17607e-07
0.000441852
0.000390698
1.13359e-07
5.73906e-12
8.44384e-15
1.22958e-14
4.45983e-14
1.62056e-13
1.94919e-11
1.32194e-07
0.000388278
0.000350135
1.5551e-07
1.36425e-11
5.28004e-14
4.79773e-14
1.66821e-13
3.88784e-13
2.33194e-11
1.5497e-07
0.000349478
0.000316865
3.16986e-07
2.19073e-11
6.36646e-14
2.25884e-13
4.71683e-13
5.1748e-13
3.79144e-11
1.0021e-07
0.000317022
0.000289564
1.55887e-06
5.7552e-11
1.75294e-13
7.93228e-13
2.95184e-12
1.11795e-11
1.12899e-10
8.52969e-07
0.00029074
0.000268008
1.05338e-05
2.48318e-10
1.0324e-12
1.73427e-12
6.81035e-14
3.98864e-12
3.6379e-10
5.02744e-06
0.000269748
0.00024975
1.34272e-05
4.63157e-10
3.97832e-12
7.12138e-12
1.77508e-10
9.35198e-10
1.13479e-09
1.43811e-05
0.000252768
0.000234788
3.1315e-05
1.13494e-09
7.1289e-12
7.84145e-12
1.13305e-09
4.37669e-09
6.01686e-09
2.63388e-05
0.000238504
0.000222115
5.44099e-05
6.68005e-09
1.06363e-11
1.09272e-11
4.82802e-09
1.10368e-08
7.48084e-08
3.7332e-05
0.000226537
0.000210736
6.02166e-05
1.09198e-08
1.53322e-11
7.52884e-10
5.43048e-09
1.7002e-08
1.20085e-07
4.45764e-05
0.000216008
0.000200721
7.23509e-05
6.3601e-08
6.03231e-11
4.89407e-10
1.36792e-08
2.40071e-08
2.76287e-07
4.91706e-05
0.000207105
0.000191638
8.08155e-05
3.31307e-07
2.7631e-10
3.05934e-09
1.3071e-08
2.91408e-08
6.03776e-07
5.09889e-05
0.000198818
0.00018335
8.69612e-05
1.86574e-06
2.09702e-08
1.19421e-08
2.4764e-08
3.94667e-08
1.06934e-06
5.19386e-05
0.000192048
0.000175566
0.000100401
4.9518e-06
1.32204e-07
1.29163e-08
2.49885e-08
4.58457e-08
1.42654e-06
5.10423e-05
0.000185211
0.000168285
0.000105649
1.01235e-05
5.16462e-07
6.39934e-08
4.45761e-08
6.17066e-08
1.60179e-06
4.98975e-05
0.000180103
0.000160891
0.000103956
1.40918e-05
1.08624e-06
7.67844e-08
5.17656e-08
7.5281e-08
1.61278e-06
4.68585e-05
0.000174203
0.000153448
0.000112311
2.06762e-05
2.08522e-06
3.06087e-07
9.87585e-08
9.12279e-08
1.52918e-06
4.39397e-05
0.000170173
0.000145782
0.000126078
2.58347e-05
3.52721e-06
3.53437e-07
1.42912e-07
1.0441e-07
1.35749e-06
3.88787e-05
0.000164846
0.000137729
0.000133438
4.03235e-05
5.56496e-06
1.23801e-06
3.31525e-07
1.789e-07
1.15974e-06
3.46001e-05
0.000160747
0.000129119
0.000141938
5.75524e-05
1.07018e-05
1.36513e-06
4.13796e-07
2.32571e-07
9.67971e-07
2.78037e-05
0.000155276
0.000119575
0.000151134
8.18382e-05
1.66119e-05
3.83191e-06
1.01546e-06
4.16754e-07
7.32524e-07
2.29825e-05
0.000151252
0.000109215
0.000164565
0.000106151
3.23525e-05
6.26808e-06
1.58227e-06
5.92961e-07
9.14562e-07
1.53941e-05
0.000139659
9.78178e-05
0.000176194
0.000140247
4.83133e-05
1.32553e-05
3.86524e-06
1.30221e-06
8.12168e-07
1.04599e-05
0.000138838
0.00372936
2.15421e-05
1.6907e-05
1.69081e-05
1.69099e-05
1.691e-05
1.6908e-05
1.69066e-05
2.15197e-05
0.00372076
0.00222403
2.38834e-07
2.92517e-08
2.97961e-08
2.99161e-08
2.99101e-08
2.98147e-08
2.93695e-08
2.379e-07
0.00218572
0.00143725
7.26417e-08
1.39209e-10
9.32016e-11
9.70708e-11
9.60611e-11
1.01146e-10
1.12968e-10
7.24415e-08
0.00140912
0.00102694
7.19344e-08
1.52487e-11
2.73576e-13
3.0283e-13
2.90417e-13
7.50058e-13
9.9919e-12
6.75447e-08
0.000998891
0.000783084
8.14901e-08
1.16085e-10
3.04308e-12
3.52885e-12
2.62888e-12
9.79451e-13
4.28915e-11
7.98289e-08
0.000761434
0.000629054
8.43428e-08
2.98817e-10
5.0183e-12
1.65368e-12
4.44945e-12
5.26004e-12
4.40202e-11
7.4669e-08
0.000612715
0.000523702
7.52128e-08
3.76214e-10
5.25743e-12
1.62613e-12
3.57015e-12
7.71421e-12
3.40065e-11
6.85145e-08
0.000513301
0.000450229
1.352e-07
5.3031e-10
1.06453e-11
1.62924e-12
8.04392e-12
3.54161e-11
5.87037e-11
8.58144e-08
0.000443561
0.00039295
1.44858e-07
3.15606e-10
2.33294e-11
3.9653e-12
1.46404e-11
8.75446e-11
1.04892e-10
1.08213e-07
0.00039081
0.000352884
1.91763e-07
5.768e-10
2.67477e-11
7.55719e-12
2.70013e-11
1.49122e-10
1.86058e-10
1.11524e-07
0.000350949
0.000318317
8.95726e-08
5.40841e-10
6.44746e-11
2.01818e-11
5.39337e-11
2.58389e-10
5.51306e-10
2.36947e-07
0.000318526
0.000290963
1.47202e-06
8.43068e-10
2.84907e-10
4.21097e-11
1.72971e-10
1.48245e-09
2.53526e-09
7.44209e-08
0.000291584
0.000269168
8.19679e-06
3.38124e-09
4.46443e-10
7.08262e-11
5.30781e-10
2.62351e-09
6.00564e-09
3.22231e-06
0.000270096
0.000251382
2.11419e-05
3.30593e-09
1.42692e-09
2.43772e-10
1.70448e-09
6.82987e-08
6.04269e-09
1.32929e-05
0.000252833
0.000236271
3.73997e-05
8.3754e-08
2.29839e-09
3.8455e-10
8.70859e-09
3.43143e-07
1.1441e-08
2.58441e-05
0.000238359
0.000223335
5.5608e-05
2.72507e-07
3.45705e-08
1.0126e-09
6.55318e-08
8.36971e-07
8.15984e-08
3.73381e-05
0.000226183
0.000211919
6.58503e-05
8.9567e-07
2.44685e-07
4.95385e-09
2.67405e-07
1.3641e-06
3.49326e-07
4.51768e-05
0.000215498
0.00020174
7.35577e-05
2.66005e-06
6.2954e-07
5.50369e-09
6.35436e-07
1.97949e-06
5.09929e-07
4.99888e-05
0.000206448
0.000192645
8.0115e-05
4.7015e-06
1.12285e-06
8.07658e-08
1.02174e-06
2.1987e-06
7.95357e-07
5.18331e-05
0.000198141
0.000184248
9.15812e-05
7.66662e-06
2.46515e-06
1.52686e-07
1.77854e-06
2.65478e-06
1.26105e-06
5.23477e-05
0.000191275
0.000176461
0.000100355
1.06547e-05
3.6203e-06
5.00838e-07
1.80023e-06
2.85965e-06
2.15487e-06
5.11673e-05
0.000184515
0.000168965
0.000103594
1.43022e-05
5.45537e-06
1.33643e-06
2.53692e-06
3.07306e-06
2.64886e-06
4.95931e-05
0.000179293
0.000161336
0.000108866
1.85051e-05
5.62533e-06
2.87141e-06
3.04266e-06
3.48753e-06
3.48929e-06
4.65096e-05
0.000173437
0.000153661
0.000121185
2.474e-05
6.72778e-06
4.08778e-06
4.0682e-06
3.99647e-06
4.12595e-06
4.36581e-05
0.000169414
0.000145904
0.000135873
3.34886e-05
8.66427e-06
5.81199e-06
5.10797e-06
4.58463e-06
4.2619e-06
3.91882e-05
0.000163724
0.000137542
0.00014205
4.97981e-05
1.21718e-05
6.96237e-06
6.39794e-06
5.4739e-06
5.24253e-06
3.55413e-05
0.000160479
0.000128303
0.000150761
7.05883e-05
1.76276e-05
9.41605e-06
8.00572e-06
6.70182e-06
5.86945e-06
3.01211e-05
0.000153331
0.00011767
0.000163853
9.61326e-05
2.76835e-05
1.30529e-05
1.01571e-05
8.18052e-06
7.17871e-06
2.67549e-05
0.00015147
0.000106428
0.000179329
0.000131629
4.5451e-05
1.75188e-05
1.32764e-05
1.06958e-05
9.13396e-06
2.16846e-05
0.000137882
9.72914e-05
0.00019895
0.000169778
8.28652e-05
3.35269e-05
1.93676e-05
1.26219e-05
1.16135e-05
2.16725e-05
0.000137857
0.00373707
2.72781e-05
2.15209e-05
2.1516e-05
2.15227e-05
2.15226e-05
2.15159e-05
2.15208e-05
2.72517e-05
0.0037286
0.0022141
7.81357e-07
2.37929e-07
2.35853e-07
2.36596e-07
2.36505e-07
2.35943e-07
2.38246e-07
7.78247e-07
0.00217718
0.00141233
5.1061e-07
6.97408e-08
6.92031e-08
6.85482e-08
6.98806e-08
6.96111e-08
7.28357e-08
5.15136e-07
0.00137633
0.00101846
3.7505e-07
7.06043e-08
6.52846e-08
6.96984e-08
6.67324e-08
6.61553e-08
6.82313e-08
3.6461e-07
0.000970373
0.000780109
4.2775e-07
7.46472e-08
7.30336e-08
8.16669e-08
7.63374e-08
7.42572e-08
8.10968e-08
3.83999e-07
0.000738527
0.000627754
4.17441e-07
5.24396e-08
7.22031e-08
6.21274e-08
7.53117e-08
7.50968e-08
7.73227e-08
4.31288e-07