/*--------------------------------*- C++ -*----------------------------------*\
| =========                 |                                                 |
| \\      /  F ield         | OpenFOAM: The Open Source CFD Toolbox           |
|  \\    /   O peration     | Version:  4.1                                   |
|   \\  /    A nd           | Web:      www.OpenFOAM.org                      |
|    \\/     M anipulation  |                                                 |
\*---------------------------------------------------------------------------*/
FoamFile
{
    version     2.0;
    format      ascii;
    class       volScalarField;
    location    "1400";
    object      p;
}
// * * * * * * * * * * * * * * * * * * * * * * * * * * * * * * * * * * * * * //

dimensions      [0 2 -2 0 0 0 0];

internalField   nonuniform List<scalar> 
12000
(
0.0762389
0.0765191
0.0761852
0.076065
0.0760274
0.0760259
0.0760605
0.0761779
0.0765095
0.076226
0.075674
0.0756596
0.0755985
0.0756014
0.075588
0.0755863
0.0755966
0.0755908
0.0756493
0.0756607
0.0755554
0.0753198
0.0753828
0.0754315
0.0754334
0.0754315
0.0754259
0.075374
0.075308
0.0755404
0.0755261
0.0752632
0.0753482
0.0753765
0.0753764
0.0753741
0.0753696
0.0753375
0.075249
0.0755083
0.0754296
0.0752112
0.0752973
0.0753004
0.0752977
0.0752948
0.0752919
0.075284
0.0751935
0.0754077
0.0753073
0.0751338
0.0752161
0.0752061
0.0752055
0.0752019
0.0751953
0.0751993
0.0751116
0.0752801
0.075206
0.0750652
0.0751403
0.0751226
0.0751246
0.0751202
0.0751088
0.0751189
0.0750378
0.0751718
0.0751312
0.0750156
0.0750814
0.0750572
0.0750602
0.0750546
0.0750395
0.0750537
0.0749808
0.0750877
0.0750727
0.0749774
0.0750334
0.0750042
0.0750068
0.0749997
0.0749815
0.0749975
0.0749318
0.0750165
0.0750243
0.0749444
0.0749907
0.0749583
0.0749594
0.0749502
0.0749289
0.0749444
0.0748846
0.0749514
0.0749845
0.0749158
0.0749527
0.0749177
0.0749165
0.0749043
0.0748796
0.0748929
0.074838
0.0748904
0.0749534
0.074892
0.0749202
0.0748823
0.0748773
0.0748613
0.0748327
0.0748423
0.0747906
0.0748323
0.0749308
0.0748735
0.0748932
0.0748516
0.0748413
0.0748204
0.0747872
0.0747916
0.0747412
0.0747745
0.0749173
0.0748613
0.0748718
0.0748255
0.0748081
0.0747808
0.0747417
0.0747394
0.0746888
0.0747146
0.0749137
0.0748566
0.0748568
0.0748038
0.0747771
0.0747415
0.0746949
0.0746842
0.0746317
0.0746504
0.0749216
0.0748612
0.0748489
0.0747869
0.0747483
0.0747018
0.0746454
0.0746241
0.0745676
0.0745794
0.0749428
0.0748768
0.0748495
0.074775
0.0747213
0.0746608
0.0745916
0.0745572
0.0744939
0.0744985
0.0749797
0.0749059
0.0748599
0.074769
0.0746959
0.0746174
0.0745314
0.0744804
0.0744073
0.0744037
0.0750348
0.0749516
0.0748819
0.0747694
0.074672
0.0745702
0.0744623
0.0743903
0.0743031
0.0742899
0.0751102
0.0750169
0.0749172
0.0747771
0.0746492
0.0745175
0.074381
0.074282
0.0741751
0.07415
0.0752067
0.0751048
0.0749679
0.074793
0.0746272
0.0744575
0.0742834
0.0741488
0.0740148
0.0739744
0.0753226
0.075216
0.075036
0.0748185
0.074606
0.0743882
0.0741645
0.0739822
0.07381
0.0737489
0.0754512
0.0753478
0.0751225
0.074855
0.0745863
0.0743074
0.0740181
0.0737705
0.0735435
0.0734524
0.0755797
0.0754902
0.0752277
0.0749055
0.0745698
0.0742134
0.0738366
0.073497
0.0731885
0.0730516
0.0756896
0.0756242
0.0753494
0.074975
0.0745604
0.0741056
0.0736108
0.0731387
0.0727033
0.0724904
0.0757632
0.0757281
0.075485
0.0750726
0.0745658
0.0739849
0.073329
0.0726612
0.0720182
0.0716679
0.0757993
0.0757931
0.0756295
0.075205
0.0745952
0.0738547
0.0729786
0.0720166
0.0710147
0.0703706
0.0758263
0.0758624
0.0757841
0.0753632
0.0746487
0.0737135
0.0725358
0.0711216
0.0694871
0.0681306
0.0758363
0.075902
0.0758595
0.0754631
0.0746844
0.0735526
0.0719953
0.06988
0.0671406
0.0635145
0.0758012
0.0758421
0.0757379
0.0753312
0.0745431
0.0732355
0.07122
0.0679439
0.0635765
0.0528022
0.0765203
0.07656
0.0762293
0.0761105
0.0760704
0.0760689
0.076106
0.0762223
0.0765508
0.0765065
0.0756607
0.0756139
0.0755793
0.0755861
0.0755709
0.0755693
0.0755814
0.0755719
0.0756039
0.0756472
0.0753211
0.0751045
0.0751905
0.0752459
0.0752468
0.0752449
0.0752405
0.0751821
0.0750931
0.0753059
0.075265
0.0750081
0.0751099
0.0751379
0.075136
0.0751338
0.0751313
0.0750998
0.0749944
0.0752467
0.0752137
0.0749915
0.0750957
0.0750922
0.075088
0.0750853
0.0750841
0.0750832
0.0749746
0.0751909
0.075137
0.0749534
0.0750557
0.0750367
0.075037
0.0750336
0.0750263
0.0750398
0.074932
0.0751086
0.0750694
0.0749163
0.0750092
0.0749811
0.0749868
0.0749824
0.0749677
0.0749883
0.0748884
0.0750343
0.0750211
0.074893
0.0749735
0.0749382
0.0749462
0.0749406
0.0749208
0.0749463
0.0748568
0.0749767
0.0749844
0.0748768
0.0749451
0.074905
0.0749131
0.0749059
0.0748825
0.07491
0.0748301
0.0749268
0.0749534
0.0748613
0.0749182
0.0748756
0.0748825
0.0748732
0.0748464
0.0748727
0.074801
0.0748782
0.0749273
0.0748462
0.0748923
0.0748483
0.0748525
0.0748406
0.0748103
0.0748328
0.074768
0.07483
0.0749065
0.0748335
0.0748691
0.0748236
0.0748235
0.0748079
0.0747739
0.0747913
0.0747317
0.074781
0.074892
0.0748246
0.07485
0.0748019
0.0747957
0.0747754
0.0747372
0.0747482
0.0746918
0.0747301
0.0748847
0.0748204
0.0748353
0.0747831
0.0747691
0.0747425
0.074699
0.0747023
0.074647
0.0746758
0.0748861
0.0748221
0.0748254
0.0747674
0.0747434
0.0747086
0.0746581
0.0746521
0.0745953
0.0746164
0.0748977
0.0748314
0.0748214
0.074755
0.0747185
0.0746731
0.0746133
0.0745959
0.0745352
0.0745492
0.0749215
0.0748502
0.0748244
0.0747465
0.0746943
0.074635
0.074563
0.0745317
0.0744642
0.0744706
0.0749594
0.074881
0.074836
0.0747424
0.0746704
0.0745932
0.074505
0.0744566
0.074379
0.0743768
0.0750138
0.0749264
0.0748575
0.0747431
0.0746465
0.0745462
0.0744367
0.0743666
0.0742748
0.0742626
0.0750866
0.0749891
0.0748904
0.0747494
0.074622
0.0744921
0.0743544
0.0742565
0.074145
0.0741205
0.0751786
0.0750713
0.0749364
0.0747615
0.0745961
0.0744284
0.0742537
0.0741195
0.0739805
0.0739403
0.0752884
0.0751741
0.0749968
0.0747803
0.0745683
0.0743524
0.0741288
0.0739461
0.0737683
0.0737068
0.0754115
0.0752959
0.0750725
0.0748065
0.0745382
0.0742611
0.0739723
0.0737232
0.0734894
0.0733974
0.0755382
0.0754309
0.0751643
0.0748422
0.0745065
0.0741514
0.0737749
0.0734323
0.0731146
0.0729759
0.0756535
0.0755671
0.075272
0.0748914
0.0744759
0.0740214
0.0735255
0.0730474
0.0725978
0.0723811
0.0757409
0.0756869
0.0753946
0.0749605
0.0744518
0.0738708
0.0732108
0.0725307
0.0718623
0.0715028
0.0757917
0.0757727
0.0755258
0.0750555
0.0744424
0.0737026
0.0728167
0.07183
0.0707771
0.0701067
0.0758137
0.0758295
0.0756529
0.0751679
0.0744486
0.0735165
0.072321
0.0708615
0.0691198
0.0676857
0.0758025
0.0758344
0.0757057
0.0752367
0.0744466
0.0733119
0.0717196
0.0695222
0.0665695
0.0626936
0.0757767
0.0757462
0.0755454
0.0750876
0.0742933
0.0729894
0.0709449
0.0675197
0.0628596
0.0512912
0.0761874
0.0762305
0.0759234
0.0758002
0.0757586
0.0757571
0.0757958
0.0759165
0.0762215
0.0761731
0.0756007
0.0755805
0.0755519
0.0755536
0.0755384
0.0755368
0.0755489
0.0755445
0.0755706
0.0755873
0.0753855
0.0751919
0.0752779
0.0753317
0.0753331
0.0753312
0.0753263
0.0752696
0.0751806
0.0753704
0.0753516
0.0751117
0.0752118
0.0752385
0.0752363
0.0752341
0.075232
0.0752018
0.0750981
0.0753335
0.0753016
0.075098
0.0752033
0.0751973
0.0751925
0.0751897
0.0751892
0.0751909
0.0750812
0.0752793
0.075222
0.0750586
0.075166
0.0751447
0.0751456
0.0751422
0.0751343
0.0751502
0.0750373
0.075194
0.075148
0.0750128
0.0751126
0.0750828
0.0750907
0.0750863
0.0750694
0.0750921
0.0749852
0.0751128
0.0750912
0.074978
0.0750654
0.0750284
0.0750394
0.0750338
0.075011
0.0750386
0.0749421
0.0750467
0.0750458
0.0749509
0.0750259
0.0749837
0.074995
0.0749878
0.0749611
0.0749909
0.0749044
0.074989
0.0750067
0.0749258
0.0749893
0.0749443
0.0749545
0.0749453
0.0749149
0.0749436
0.0748656
0.0749335
0.0749733
0.074902
0.0749545
0.074908
0.0749155
0.0749037
0.0748697
0.0748947
0.0748239
0.0748784
0.0749462
0.0748819
0.0749231
0.0748751
0.0748781
0.0748628
0.0748252
0.074845
0.0747801
0.0748236
0.0749265
0.0748665
0.0748965
0.0748461
0.074843
0.074823
0.0747814
0.0747946
0.0747338
0.074768
0.0749149
0.0748565
0.074875
0.074821
0.0748099
0.0747837
0.0747371
0.0747423
0.0746834
0.0747096
0.0749123
0.0748529
0.074859
0.0747995
0.0747784
0.0747441
0.0746909
0.0746864
0.0746273
0.0746461
0.0749198
0.0748571
0.0748493
0.0747819
0.0747482
0.0747034
0.0746414
0.0746252
0.0745632
0.0745747
0.0749394
0.0748708
0.074847
0.0747684
0.074719
0.0746604
0.0745866
0.0745565
0.0744886
0.0744923
0.0749729
0.0748961
0.0748531
0.0747592
0.0746902
0.0746138
0.0745244
0.0744771
0.0743999
0.0743948
0.0750223
0.0749353
0.0748687
0.0747546
0.0746611
0.0745619
0.0744517
0.0743829
0.074292
0.0742768
0.0750889
0.0749904
0.074895
0.0747547
0.0746308
0.0745024
0.0743646
0.0742684
0.074158
0.0741305
0.0751732
0.0750632
0.0749328
0.0747595
0.0745981
0.0744324
0.0742582
0.0741262
0.0739885
0.0739451
0.0752734
0.0751545
0.074983
0.0747691
0.0745619
0.0743487
0.0741262
0.0739464
0.0737697
0.0737049
0.0753852
0.0752626
0.0750459
0.0747834
0.0745208
0.0742473
0.0739602
0.0737148
0.0734816
0.0733859
0.0755007
0.0753829
0.0751212
0.0748032
0.0744744
0.0741243
0.0737501
0.0734119
0.0730938
0.0729505
0.0756091
0.0755063
0.0752081
0.0748305
0.0744238
0.0739766
0.073484
0.0730103
0.0725579
0.0723344
0.0756991
0.0756205
0.0753047
0.0748692
0.0743731
0.0738035
0.073148
0.0724712
0.0717942
0.0714231
0.0757625
0.0757133
0.0754083
0.0749259
0.074332
0.0736113
0.0727323
0.0717452
0.0706695
0.0699749
0.0757995
0.0757782
0.0755114
0.0750048
0.0743163
0.0734167
0.0722323
0.0707649
0.0689653
0.0674743
0.0758172
0.0758116
0.0755944
0.0751117
0.074368
0.0732832
0.0717097
0.069496
0.0664161
0.0623815
0.0758286
0.0758049
0.0756246
0.0752408
0.0745374
0.0732985
0.0712773
0.067825
0.0629504
0.0509403
0.0760687
0.0761131
0.0758016
0.0756775
0.0756356
0.0756341
0.0756731
0.0757947
0.0761041
0.0760543
0.0756051
0.0755887
0.075555
0.0755572
0.075542
0.0755404
0.0755526
0.0755477
0.0755789
0.0755916
0.0754359
0.0752488
0.0753332
0.0753893
0.0753909
0.075389
0.075384
0.0753249
0.0752376
0.0754209
0.0753819
0.0751414
0.0752403
0.075269
0.0752666
0.0752644
0.0752625
0.0752303
0.0751278
0.075364
0.0753073
0.0750967
0.0751995
0.0751937
0.0751882
0.0751855
0.0751857
0.0751871
0.0750798
0.0752852
0.075215
0.0750424
0.0751475
0.0751251
0.0751255
0.0751221
0.0751148
0.0751316
0.075021
0.0751873
0.075134
0.0749885
0.0750865
0.0750551
0.0750628
0.0750585
0.0750418
0.075066
0.074961
0.0750989
0.0750719
0.0749478
0.0750331
0.0749939
0.0750049
0.0749994
0.0749765
0.0750065
0.0749122
0.0750272
0.0750231
0.0749175
0.07499
0.0749451
0.0749564
0.0749493
0.0749225
0.0749553
0.0748715
0.0749657
0.0749828
0.0748919
0.0749526
0.0749049
0.074915
0.0749059
0.0748755
0.0749075
0.0748322
0.0749085
0.0749499
0.0748695
0.0749188
0.0748698
0.0748773
0.0748655
0.0748316
0.0748599
0.074792
0.0748534
0.074924
0.0748511
0.0748893
0.0748391
0.0748421
0.0748268
0.0747894
0.0748125
0.0747502
0.0747993
0.0749056
0.0748378
0.0748649
0.0748127
0.0748094
0.0747895
0.0747482
0.0747646
0.074706
0.0747446
0.0748953
0.0748301
0.0748458
0.0747905
0.0747791
0.074753
0.0747067
0.074715
0.0746578
0.0746874
0.0748938
0.0748286
0.0748321
0.0747719
0.0747504
0.0747163
0.0746634
0.0746617
0.0746038
0.074625
0.0749023
0.0748347
0.0748245
0.074757
0.0747228
0.0746783
0.0746166
0.074603
0.0745417
0.0745547
0.0749226
0.0748499
0.0748237
0.0747456
0.0746957
0.0746376
0.0745642
0.0745362
0.0744688
0.0744732
0.0749563
0.0748761
0.0748306
0.0747379
0.0746685
0.0745928
0.0745038
0.0744583
0.0743812
0.0743762
0.075005
0.0749151
0.0748462
0.0747339
0.0746402
0.0745419
0.0744323
0.074365
0.0742739
0.0742582
0.0750699
0.0749689
0.0748713
0.0747334
0.0746097
0.0744824
0.0743455
0.0742505
0.0741397
0.0741112
0.0751511
0.075039
0.0749065
0.0747363
0.0745757
0.0744114
0.0742382
0.0741074
0.0739688
0.0739241
0.075247
0.075126
0.0749526
0.0747421
0.0745364
0.074325
0.0741039
0.0739251
0.0737473
0.0736806
0.0753539
0.0752287
0.0750097
0.0747508
0.0744905
0.0742193
0.0739339
0.0736894
0.0734546
0.0733564
0.0754655
0.0753434
0.0750778
0.0747628
0.0744372
0.0740901
0.0737181
0.0733807
0.07306
0.0729132
0.0755733
0.0754634
0.075157
0.0747805
0.0743783
0.0739353
0.0734453
0.0729721
0.0725153
0.0722865
0.0756691
0.0755792
0.0752474
0.0748098
0.0743201
0.073757
0.0731049
0.0724276
0.0717425
0.0713624
0.0757463
0.0756819
0.0753501
0.0748632
0.07428
0.0735699
0.0726957
0.0717062
0.0706155
0.0699046
0.0758043
0.0757657
0.0754662
0.0749597
0.074291
0.0734087
0.0722317
0.0707598
0.0689338
0.0674123
0.0758477
0.0758291
0.0755989
0.0751391
0.0744305
0.0733712
0.0718091
0.0695927
0.0664794
0.0624066
0.0758788
0.0758649
0.0757459
0.0754406
0.074789
0.0735742
0.0715645
0.0681187
0.0632261
0.0512533
0.0760328
0.0760746
0.0757615
0.0756371
0.0755952
0.0755936
0.0756328
0.0757546
0.0760655
0.0760182
0.0755934
0.0755752
0.0755414
0.0755436
0.0755283
0.0755267
0.0755389
0.0755341
0.0755653
0.0755798
0.0754397
0.0752516
0.0753364
0.0753927
0.0753941
0.0753923
0.0753874
0.0753281
0.0752403
0.0754247
0.0753843
0.0751418
0.0752403
0.0752687
0.075266
0.0752638
0.0752623
0.0752303
0.0751282
0.0753663
0.0753075
0.0750954
0.0751974
0.0751909
0.0751849
0.0751822
0.0751828
0.0751849
0.0750784
0.0752854
0.0752181
0.0750464
0.075152
0.075129
0.0751291
0.0751256
0.0751187
0.0751361
0.075025
0.0751903
0.0751408
0.0749988
0.0750989
0.0750674
0.0750751
0.0750708
0.075054
0.0750785
0.0749714
0.0751056
0.075081
0.0749618
0.0750501
0.0750109
0.0750224
0.0750169
0.0749936
0.0750236
0.0749264
0.0750359
0.0750334
0.0749333
0.0750092
0.0749643
0.0749762
0.0749692
0.0749418
0.0749745
0.0748875
0.0749757
0.0749938
0.0749089
0.074973
0.0749252
0.0749361
0.0749271
0.0748959
0.0749278
0.0748494
0.0749195
0.0749613
0.0748869
0.0749396
0.0748906
0.074899
0.0748873
0.0748524
0.0748807
0.0748095
0.0748655
0.0749357
0.0748682
0.0749097
0.0748594
0.0748635
0.0748483
0.0748098
0.0748328
0.0747671
0.0748123
0.0749171
0.074854
0.0748841
0.0748319
0.0748298
0.07481
0.0747675
0.0747839
0.0747219
0.074758
0.0749061
0.074845
0.0748636
0.0748082
0.0747981
0.0747721
0.0747246
0.0747329
0.0746725
0.0747003
0.0749036
0.074842
0.0748483
0.074788
0.0747678
0.0747339
0.0746798
0.0746782
0.0746173
0.074637
0.074911
0.0748464
0.0748389
0.0747711
0.0747383
0.074694
0.0746312
0.0746179
0.074554
0.0745657
0.0749299
0.0748597
0.074836
0.0747577
0.0747092
0.0746514
0.074577
0.0745494
0.0744798
0.0744831
0.0749619
0.0748837
0.0748406
0.0747477
0.0746797
0.0746044
0.0745146
0.0744696
0.0743907
0.074385
0.0750085
0.0749201
0.0748536
0.0747412
0.074649
0.0745512
0.0744409
0.0743742
0.0742818
0.0742656
0.0750709
0.0749709
0.0748756
0.0747379
0.0746157
0.0744892
0.0743517
0.0742576
0.0741457
0.074117
0.0751493
0.0750376
0.0749074
0.0747375
0.0745785
0.0744151
0.0742418
0.0741118
0.0739727
0.0739279
0.0752421
0.0751208
0.0749495
0.0747397
0.0745356
0.0743254
0.0741042
0.0739266
0.0737485
0.0736819
0.0753461
0.0752198
0.0750022
0.0747441
0.0744855
0.0742157
0.0739307
0.0736875
0.0734527
0.0733546
0.0754557
0.0753316
0.075066
0.0747516
0.0744278
0.0740824
0.0737109
0.0733749
0.0730543
0.0729076
0.075564
0.0754507
0.0751414
0.0747648
0.0743645
0.0739237
0.0734346
0.0729627
0.0725059
0.0722768
0.0756632
0.0755688
0.0752299
0.074791
0.074304
0.0737439
0.0730931
0.0724167
0.0717309
0.0713498
0.075747
0.0756777
0.0753346
0.0748455
0.074267
0.0735618
0.0726897
0.0717008
0.0706077
0.0698942
0.0758128
0.0757702
0.0754596
0.0749534
0.0742935
0.0734195
0.0722465
0.0707751
0.0689449
0.0674184
0.0758626
0.0758415
0.0756114
0.0751637
0.074472
0.0734268
0.0718736
0.0696605
0.0665443
0.0624576
0.0758977
0.0758856
0.0757959
0.0755278
0.0749058
0.0737129
0.07172
0.068285
0.0633957
0.0513787
0.0760329
0.0760746
0.0757616
0.0756372
0.0755952
0.0755937
0.0756328
0.0757547
0.0760656
0.0760183
0.0755935
0.0755752
0.0755414
0.0755437
0.0755284
0.0755268
0.075539
0.0755341
0.0755653
0.0755799
0.0754398
0.0752516
0.0753364
0.0753927
0.0753942
0.0753923
0.0753874
0.0753282
0.0752404
0.0754248
0.0753843
0.0751419
0.0752403
0.0752687
0.0752661
0.0752639
0.0752623
0.0752303
0.0751282
0.0753664
0.0753077
0.0750953
0.0751974
0.0751909
0.0751849
0.0751822
0.0751829
0.075185
0.0750785
0.0752855
0.0752182
0.0750463
0.0751519
0.075129
0.075129
0.0751256
0.0751187
0.0751361
0.075025
0.0751904
0.0751409
0.0749987
0.0750988
0.0750673
0.075075
0.0750707
0.075054
0.0750784
0.0749714
0.0751056
0.0750811
0.0749617
0.0750501
0.0750109
0.0750223
0.0750169
0.0749936
0.0750235
0.0749263
0.075036
0.0750334
0.0749332
0.0750091
0.0749642
0.0749762
0.0749692
0.0749417
0.0749745
0.0748874
0.0749755
0.0749938
0.0749088
0.074973
0.0749252
0.0749361
0.0749271
0.0748959
0.0749278
0.0748492
0.0749194
0.0749611
0.0748869
0.0749398
0.0748906
0.0748989
0.0748872
0.0748524
0.0748806
0.0748093
0.0748655
0.0749353
0.0748682
0.0749099
0.0748594
0.0748634
0.0748482
0.0748097
0.0748327
0.0747669
0.0748123
0.0749167
0.074854
0.0748843
0.0748319
0.0748298
0.0748099
0.0747674
0.0747838
0.0747217
0.0747579
0.0749058
0.074845
0.0748637
0.0748081
0.074798
0.0747721
0.0747245
0.0747328
0.0746723
0.0747002
0.0749033
0.074842
0.0748484
0.0747879
0.0747677
0.0747338
0.0746797
0.0746782
0.0746172
0.0746369
0.0749107
0.0748464
0.0748389
0.074771
0.0747382
0.0746939
0.0746311
0.0746179
0.0745539
0.0745655
0.0749296
0.0748597
0.074836
0.0747576
0.0747091
0.0746513
0.0745769
0.0745494
0.0744796
0.0744829
0.0749615
0.0748836
0.0748407
0.0747477
0.0746796
0.0746044
0.0745145
0.0744697
0.0743907
0.0743848
0.0750082
0.07492
0.0748536
0.0747411
0.0746489
0.0745511
0.0744408
0.0743743
0.0742817
0.0742655
0.0750705
0.0749708
0.0748756
0.0747378
0.0746156
0.0744891
0.0743516
0.0742576
0.0741457
0.0741168
0.0751488
0.0750374
0.0749074
0.0747374
0.0745784
0.0744151
0.0742417
0.0741119
0.0739727
0.0739277
0.0752416
0.0751206
0.0749495
0.0747396
0.0745355
0.0743253
0.0741042
0.0739267
0.0737485
0.0736818
0.0753457
0.0752195
0.0750021
0.0747441
0.0744854
0.0742157
0.0739306
0.0736877
0.0734528
0.0733546
0.0754553
0.0753313
0.0750658
0.0747515
0.0744277
0.0740824
0.073711
0.0733752
0.0730546
0.0729077
0.0755636
0.0754503
0.0751411
0.0747647
0.0743646
0.0739238
0.0734348
0.0729631
0.0725063
0.0722771
0.0756629
0.0755684
0.0752296
0.074791
0.0743041
0.0737441
0.0730935
0.0724174
0.0717316
0.0713504
0.0757468
0.0756774
0.0753343
0.0748456
0.0742674
0.0735624
0.0726906
0.0717019
0.0706091
0.0698954
0.0758128
0.0757701
0.0754594
0.0749537
0.0742943
0.0734207
0.0722481
0.0707772
0.0689472
0.0674205
0.0758628
0.0758417
0.0756116
0.0751644
0.0744734
0.0734289
0.0718765
0.0696642
0.0665486
0.0624612
0.0758981
0.0758861
0.0757968
0.0755294
0.0749081
0.0737164
0.071725
0.0682915
0.0634033
0.0513853
0.0760691
0.0761133
0.0758018
0.0756777
0.0756358
0.0756343
0.0756734
0.0757949
0.0761043
0.0760546
0.0756054
0.075589
0.0755552
0.0755574
0.0755422
0.0755406
0.0755527
0.0755479
0.0755791
0.0755919
0.0754361
0.075249
0.0753334
0.0753895
0.075391
0.0753892
0.0753842
0.0753251
0.0752378
0.0754212
0.0753822
0.0751416
0.0752404
0.0752691
0.0752667
0.0752645
0.0752627
0.0752304
0.075128
0.0753643
0.0753077
0.0750968
0.0751995
0.0751938
0.0751882
0.0751855
0.0751858
0.0751871
0.07508
0.0752856
0.0752153
0.0750423
0.0751474
0.0751251
0.0751255
0.0751221
0.0751149
0.0751317
0.0750211
0.0751875
0.0751339
0.0749884
0.0750864
0.0750551
0.0750627
0.0750585
0.0750418
0.075066
0.074961
0.075099
0.0750716
0.0749476
0.0750331
0.0749938
0.0750048
0.0749994
0.0749765
0.0750065
0.0749122
0.075027
0.0750226
0.0749173
0.07499
0.074945
0.0749563
0.0749493
0.0749224
0.0749553
0.0748713
0.0749652
0.0749822
0.0748918
0.0749527
0.0749048
0.0749149
0.0749058
0.0748755
0.0749073
0.074832
0.074908
0.074949
0.0748695
0.0749189
0.0748698
0.0748771
0.0748654
0.0748316
0.0748598
0.0747917
0.074853
0.0749232
0.0748512
0.0748894
0.074839
0.0748419
0.0748266
0.0747893
0.0748123
0.0747499
0.074799
0.0749052
0.0748378
0.0748648
0.0748126
0.0748093
0.0747893
0.0747481
0.0747643
0.0747056
0.0747445
0.0748951
0.07483
0.0748456
0.0747903
0.0747789
0.0747528
0.0747066
0.0747146
0.0746574
0.0746874
0.0748936
0.0748285
0.0748319
0.0747718
0.0747502
0.0747161
0.0746633
0.0746614
0.0746033
0.0746249
0.0749021
0.0748345
0.0748243
0.0747568
0.0747227
0.074678
0.0746164
0.0746026
0.0745412
0.0745545
0.0749222
0.0748497
0.0748235
0.0747455
0.0746956
0.0746374
0.074564
0.0745359
0.0744684
0.0744729
0.0749558
0.0748758
0.0748304
0.0747378
0.0746684
0.0745926
0.0745037
0.0744581
0.0743809
0.0743761
0.0750045
0.0749147
0.074846
0.0747338
0.0746401
0.0745417
0.0744321
0.0743648
0.0742735
0.0742581
0.0750693
0.0749684
0.074871
0.0747333
0.0746097
0.0744823
0.0743453
0.0742503
0.0741393
0.0741111
0.0751504
0.0750384
0.0749062
0.0747361
0.0745756
0.0744113
0.0742381
0.0741071
0.0739684
0.0739239
0.0752463
0.0751253
0.0749523
0.074742
0.0745363
0.074325
0.0741037
0.0739249
0.0737469
0.0736806
0.0753531
0.0752279
0.0750093
0.0747507
0.0744904
0.0742193
0.0739339
0.0736894
0.0734545
0.0733565
0.0754645
0.0753426
0.0750775
0.0747628
0.0744373
0.0740903
0.0737184
0.0733809
0.0730601
0.0729137
0.0755723
0.0754625
0.0751568
0.0747806
0.0743786
0.0739358
0.073446
0.0729728
0.072516
0.0722875
0.0756681
0.0755783
0.0752472
0.0748102
0.0743208
0.073758
0.0731063
0.0724291
0.0717441
0.0713643
0.0757454
0.0756812
0.0753501
0.074864
0.0742815
0.073572
0.0726984
0.0717093
0.0706186
0.069908
0.0758035
0.0757653
0.0754666
0.0749614
0.0742939
0.0734127
0.0722367
0.0707656
0.06894
0.0674185
0.0758471
0.0758292
0.0756002
0.0751425
0.0744359
0.0733784
0.0718183
0.0696034
0.0664912
0.0624172
0.0758788
0.0758658
0.0757492
0.0754468
0.074798
0.0735863
0.0715799
0.0681368
0.0632466
0.0512686
0.0761879
0.0762311
0.075924
0.0758007
0.0757591
0.0757576
0.0757963
0.0759171
0.0762222
0.0761737
0.0756013
0.0755809
0.0755522
0.075554
0.0755388
0.0755371
0.0755493
0.0755449
0.0755711
0.0755878
0.075386
0.0751922
0.0752782
0.0753319
0.0753333
0.0753315
0.0753266
0.0752699
0.0751809
0.075371
0.0753522
0.0751118
0.075212
0.0752387
0.0752365
0.0752343
0.0752322
0.0752019
0.0750981
0.0753342
0.0753021
0.0750981
0.0752034
0.0751974
0.0751925
0.0751898
0.0751893
0.0751909
0.0750812
0.0752801
0.0752223
0.0750585
0.075166
0.0751447
0.0751456
0.0751423
0.0751344
0.0751502
0.0750372
0.0751948
0.0751478
0.0750126
0.0751127
0.0750828
0.0750907
0.0750863
0.0750694
0.0750921
0.0749852
0.0751133
0.0750905
0.074978
0.0750655
0.0750283
0.0750393
0.0750337
0.0750109
0.0750386
0.0749423
0.0750469
0.0750445
0.0749512
0.0750261
0.0749837
0.074995
0.0749878
0.0749609
0.0749909
0.0749044
0.0749889
0.0750053
0.0749261
0.0749895
0.0749443
0.0749545
0.0749452
0.0749147
0.0749435
0.0748653
0.0749333
0.0749719
0.0749023
0.0749545
0.0749079
0.0749154
0.0749035
0.0748694
0.0748948
0.0748235
0.0748782
0.0749453
0.074882
0.0749228
0.0748748
0.074878
0.0748626
0.074825
0.0748453
0.0747798
0.0748233
0.0749259
0.0748665
0.0748961
0.0748457
0.0748427
0.0748226
0.0747811
0.074795
0.0747336
0.0747675
0.0749145
0.0748564
0.0748745
0.0748205
0.0748095
0.0747833
0.0747368
0.0747428
0.0746834
0.0747089
0.0749118
0.0748527
0.0748584
0.0747991
0.0747781
0.0747437
0.0746905
0.074687
0.0746273
0.0746452
0.0749193
0.0748567
0.0748486
0.0747815
0.0747479
0.0747029
0.0746409
0.0746256
0.0745632
0.0745739
0.0749389
0.0748702
0.0748462
0.0747679
0.0747186
0.07466
0.0745861
0.0745567
0.0744887
0.0744915
0.0749724
0.0748954
0.0748522
0.0747587
0.0746898
0.0746134
0.074524
0.0744775
0.0744001
0.0743941
0.0750217
0.0749344
0.0748678
0.0747541
0.0746607
0.0745616
0.0744513
0.0743833
0.0742922
0.0742761
0.0750882
0.0749893
0.074894
0.0747542
0.0746304
0.0745021
0.0743643
0.0742688
0.0741582
0.0741299
0.0751724
0.075062
0.0749317
0.0747589
0.0745978
0.0744322
0.0742579
0.0741265
0.0739886
0.0739446
0.0752724
0.0751531
0.0749819
0.0747685
0.0745615
0.0743485
0.0741259
0.0739466
0.0737698
0.0737046
0.0753842
0.0752612
0.0750448
0.0747829
0.0745204
0.0742472
0.0739601
0.0737151
0.073482
0.0733858
0.0754996
0.0753814
0.0751202
0.0748028
0.0744742
0.0741244
0.0737503
0.0734125
0.0730945
0.0729507
0.075608
0.0755049
0.0752071
0.0748302
0.0744238
0.0739771
0.0734847
0.0730116
0.0725593
0.0723353
0.0756981
0.0756193
0.0753039
0.0748692
0.0743736
0.0738047
0.0731497
0.0724736
0.0717968
0.0714251
0.0757616
0.0757125
0.0754078
0.0749264
0.0743336
0.0736139
0.0727358
0.0717496
0.0706743
0.0699789
0.0757987
0.0757778
0.0755114
0.0750064
0.0743197
0.0734219
0.0722391
0.0707732
0.0689742
0.0674822
0.0758161
0.0758114
0.075596
0.0751157
0.0743751
0.0732936
0.071723
0.0695119
0.0664337
0.0623968
0.0758271
0.0758049
0.0756291
0.0752499
0.0745512
0.0733173
0.0713011
0.0678532
0.062983
0.0509696
0.0765208
0.0765609
0.0762304
0.0761115
0.0760714
0.0760699
0.0761071
0.0762235
0.0765521
0.076507
0.0756611
0.0756144
0.0755797
0.0755865
0.0755713
0.0755697
0.0755819
0.0755724
0.0756045
0.0756475
0.0753218
0.0751048
0.0751908
0.0752462
0.075247
0.0752452
0.0752408
0.0751824
0.0750935
0.0753064
0.075266
0.0750084
0.0751101
0.0751381
0.0751363
0.075134
0.0751316
0.0750999
0.0749946
0.0752477
0.0752147
0.0749918
0.0750959
0.0750925
0.0750882
0.0750855
0.0750843
0.0750833
0.0749748
0.075192
0.0751382
0.0749534
0.0750557
0.0750368
0.0750372
0.0750338
0.0750265
0.0750398
0.0749319
0.0751098
0.0750706
0.074916
0.075009
0.0749811
0.0749869
0.0749825
0.0749678
0.0749885
0.0748885
0.0750349
0.0750215
0.0748925
0.0749733
0.0749381
0.0749462
0.0749407
0.0749208
0.0749467
0.074857
0.0749763
0.0749833
0.0748762
0.0749452
0.0749049
0.074913
0.0749058
0.0748823
0.07491
0.0748301
0.0749264
0.0749514
0.0748605
0.0749184
0.0748755
0.0748823
0.074873
0.0748461
0.0748723
0.0748008
0.0748782
0.0749251
0.0748453
0.0748923
0.074848
0.0748522
0.0748403
0.0748098
0.0748323
0.0747674
0.0748301
0.0749046
0.0748327
0.074869
0.0748232
0.0748231
0.0748075
0.0747734
0.0747909
0.074731
0.0747809
0.0748904
0.0748238
0.0748497
0.0748013
0.0747952
0.0747749
0.0747366
0.074748
0.0746911
0.0747297
0.0748834
0.0748197
0.0748349
0.0747825
0.0747686
0.074742
0.0746984
0.0747023
0.0746464
0.074675
0.074885
0.0748215
0.0748249
0.0747667
0.0747429
0.0747081
0.0746574
0.0746521
0.0745948
0.0746154
0.0748967
0.0748307
0.0748208
0.0747543
0.074718
0.0746725
0.0746125
0.0745958
0.0745346
0.0745482
0.0749205
0.0748495
0.0748237
0.0747458
0.0746937
0.0746344
0.0745621
0.0745315
0.0744636
0.0744697
0.0749584
0.0748802
0.0748352
0.0747416
0.0746698
0.0745926
0.0745041
0.0744564
0.0743785
0.0743758
0.0750128
0.0749255
0.0748565
0.0747424
0.0746459
0.0745456
0.0744358
0.0743665
0.0742743
0.0742616
0.0750854
0.074988
0.0748894
0.0747485
0.0746213
0.0744915
0.0743536
0.0742566
0.0741446
0.0741196
0.0751773
0.07507
0.0749352
0.0747607
0.0745955
0.0744279
0.074253
0.0741197
0.0739802
0.0739394
0.0752871
0.0751725
0.0749954
0.0747793
0.0745676
0.074352
0.0741282
0.0739464
0.0737682
0.0737061
0.0754101
0.0752941
0.075071
0.0748056
0.0745376
0.0742608
0.0739719
0.0737236
0.0734896
0.0733967
0.0755368
0.0754291
0.0751627
0.0748412
0.0745059
0.0741512
0.0737747
0.073433
0.0731152
0.0729756
0.0756522
0.0755653
0.0752703
0.0748903
0.0744754
0.0740215
0.0735258
0.0730487
0.0725991
0.0723813
0.0757399
0.0756854
0.0753927
0.0749593
0.0744514
0.0738714
0.0732119
0.072533
0.0718648
0.0715042
0.0757911
0.0757718
0.075524
0.0750543
0.0744425
0.0737042
0.0728194
0.0718341
0.0707818
0.0701101
0.0758136
0.0758291
0.0756516
0.075167
0.0744496
0.07352
0.0723265
0.070869
0.0691283
0.0676928
0.0758023
0.075835
0.0757065
0.0752381
0.0744505
0.0733196
0.0717307
0.0695366
0.066586
0.0627079
0.0757747
0.0757462
0.0755494
0.0750949
0.0743046
0.0730061
0.0709671
0.0675462
0.0628908
0.051319
0.0762385
0.0765181
0.0761836
0.0760633
0.0760256
0.0760241
0.0760588
0.0761764
0.0765084
0.0762242
0.0756739
0.0756593
0.075598
0.0756008
0.0755873
0.0755857
0.075596
0.0755904
0.0756489
0.07566
0.0755558
0.0753199
0.0753828
0.0754314
0.0754332
0.0754314
0.0754258
0.075374
0.075308
0.0755403
0.075527
0.0752639
0.0753485
0.0753767
0.0753766
0.0753743
0.0753699
0.0753379
0.0752497
0.0755089
0.0754307
0.0752122
0.0752978
0.0753008
0.0752982
0.0752952
0.0752923
0.0752845
0.0751944
0.0754086
0.0753086
0.0751351
0.0752167
0.0752066
0.0752061
0.0752024
0.0751958
0.0752
0.0751128
0.075281
0.0752072
0.0750667
0.0751408
0.075123
0.0751252
0.0751207
0.0751093
0.0751195
0.0750384
0.0751725
0.0751318
0.0750165
0.0750816
0.0750576
0.0750609
0.0750551
0.07504
0.0750543
0.0749806
0.0750879
0.0750724
0.074977
0.0750332
0.0750043
0.0750071
0.0749999
0.0749817
0.0749981
0.0749318
0.0750168
0.0750231
0.0749431
0.0749902
0.074958
0.0749593
0.0749501
0.0749289
0.0749448
0.074885
0.0749518
0.0749829
0.0749142
0.0749522
0.0749174
0.0749161
0.0749041
0.0748795
0.0748928
0.0748383
0.0748908
0.0749517
0.0748904
0.0749196
0.0748819
0.0748768
0.074861
0.0748325
0.0748419
0.0747906
0.0748324
0.0749294
0.0748721
0.0748924
0.0748512
0.0748408
0.0748201
0.0747869
0.0747911
0.074741
0.0747743
0.0749161
0.0748601
0.074871
0.0748249
0.0748075
0.0747804
0.0747414
0.0747389
0.0746884
0.0747143
0.0749127
0.0748556
0.074856
0.0748032
0.0747764
0.074741
0.0746945
0.0746835
0.0746311
0.0746501
0.0749207
0.0748603
0.0748482
0.0747861
0.0747475
0.0747012
0.0746449
0.0746235
0.074567
0.074579
0.074942
0.074876
0.0748488
0.0747742
0.0747204
0.0746601
0.0745908
0.0745565
0.0744932
0.074498
0.0749789
0.0749051
0.0748592
0.0747681
0.074695
0.0746165
0.0745303
0.0744794
0.0744064
0.0744031
0.0750339
0.0749507
0.074881
0.0747685
0.074671
0.0745691
0.074461
0.0743891
0.074302
0.0742893
0.0751091
0.075016
0.0749163
0.0747762
0.0746481
0.0745164
0.0743797
0.0742807
0.0741741
0.0741495
0.0752056
0.0751037
0.0749669
0.0747921
0.0746261
0.0744564
0.0742822
0.0741477
0.0740139
0.073974
0.0753213
0.0752148
0.0750348
0.0748175
0.074605
0.0743871
0.0741634
0.0739813
0.0738092
0.0737486
0.0754499
0.0753464
0.0751211
0.0748539
0.0745853
0.0743063
0.0740171
0.0737696
0.0735427
0.0734522
0.0755785
0.0754888
0.0752262
0.0749043
0.0745688
0.0742124
0.0738357
0.0734963
0.0731879
0.0730517
0.0756885
0.0756229
0.0753478
0.0749736
0.0745594
0.0741047