/*--------------------------------*- C++ -*----------------------------------*\
| =========                 |                                                 |
| \\      /  F ield         | OpenFOAM: The Open Source CFD Toolbox           |
|  \\    /   O peration     | Version:  4.1                                   |
|   \\  /    A nd           | Web:      www.OpenFOAM.org                      |
|    \\/     M anipulation  |                                                 |
\*---------------------------------------------------------------------------*/
FoamFile
{
    version     2.0;
    format      ascii;
    class       surfaceScalarField;
    location    "1400";
    object      phi;
}
// * * * * * * * * * * * * * * * * * * * * * * * * * * * * * * * * * * * * * //

dimensions      [0 3 -1 0 0 0 0];

internalField   nonuniform List<scalar> 
33700
(
4.951e-05
0.000901051
4.94499e-05
2.30223e-05
0.000971588
5.4911e-05
8.40093e-06
0.000957555
5.70778e-05
3.13755e-06
0.000948326
5.6949e-05
8.94414e-08
0.000945864
5.71957e-05
-2.96467e-06
0.000945872
5.71946e-05
-8.24528e-06
0.000948346
5.69459e-05
-2.28935e-05
0.000957586
5.70711e-05
-4.93834e-05
0.000971624
5.48732e-05
0.000901126
4.94943e-05
3.12454e-05
0.000838694
3.11336e-05
2.34062e-05
0.000941578
3.78698e-05
1.33265e-05
0.000927699
3.99567e-05
6.11107e-06
0.000915945
3.96185e-05
2.26268e-07
0.000911699
4.00729e-05
-5.67193e-06
0.000911728
4.00649e-05
-1.29229e-05
0.000916031
3.95865e-05
-2.30501e-05
0.000927832
3.98984e-05
-3.09012e-05
0.000941681
3.78066e-05
0.00083901
3.12205e-05
1.60686e-05
0.000806785
1.58553e-05
1.66528e-05
0.000919009
2.20009e-05
1.16856e-05
0.000909124
2.35588e-05
6.04341e-06
0.000898344
2.32604e-05
3.9443e-07
0.000893583
2.37827e-05
-5.27979e-06
0.000893645
2.37737e-05
-1.09955e-05
0.00089853
2.32308e-05
-1.60566e-05
0.000909382
2.35237e-05
-1.55667e-05
0.000919237
2.19647e-05
0.000807594
1.58546e-05
8.7577e-06
0.000789652
8.38287e-06
1.21496e-05
0.000902665
1.29607e-05
9.562e-06
0.000898139
1.35822e-05
5.22976e-06
0.000888867
1.38201e-05
6.0409e-07
0.000883793
1.44259e-05
-4.06744e-06
0.000883908
1.44173e-05
-8.52832e-06
0.00088921
1.37877e-05
-1.12838e-05
0.000898618
1.3526e-05
-8.05993e-06
0.0009031
1.29199e-05
0.00079117
8.37007e-06
5.50591e-06
0.000779184
4.96547e-06
9.5375e-06
0.000890218
8.41975e-06
8.31226e-06
0.00089171
7.65989e-06
4.75844e-06
0.000883813
8.61253e-06
8.66529e-07
0.000878443
9.24584e-06
-3.08807e-06
0.000878633
9.23048e-06
-6.84225e-06
0.000884392
8.5729e-06
-8.34417e-06
0.000892572
7.54957e-06
-4.56559e-06
0.000890933
8.39293e-06
0.000781649
4.96154e-06
4.29394e-06
0.000771349
3.54152e-06
7.7259e-06
0.000880458
6.33036e-06
7.42784e-06
0.000887742
4.26863e-06
4.50546e-06
0.000880793
5.94389e-06
1.19938e-06
0.000875304
6.44454e-06
-2.20128e-06
0.000875599
6.43257e-06
-5.4051e-06
0.000881688
5.90537e-06
-6.05432e-06
0.000889069
4.15218e-06
-3.03323e-06
0.000881505
6.41052e-06
0.000775027
3.59402e-06
4.21324e-06
0.000763987
3.14786e-06
6.34186e-06
0.00087271
5.62009e-06
6.74392e-06
0.000884966
2.37434e-06
4.38132e-06
0.00087842
4.73583e-06
1.6139e-06
0.000873084
4.98583e-06
-1.24351e-06
0.000873467
4.98556e-06
-4.01053e-06
0.000879736
4.71522e-06
-4.11805e-06
0.000886897
2.27971e-06
-2.46239e-06
0.00087409
5.76292e-06
0.00076933
3.24012e-06
4.50789e-06
0.000756427
3.05225e-06
5.53941e-06
0.000866272
5.40598e-06
6.5242e-06
0.000882644
1.33755e-06
4.52663e-06
0.000876155
4.26297e-06
2.14461e-06
0.000871268
4.19626e-06
-2.69775e-07
0.000871681
4.19689e-06
-2.78256e-06
0.00087799
4.25609e-06
-2.65677e-06
0.000885474
1.29665e-06
-2.11301e-06
0.000868008
5.54167e-06
0.000764075
3.1477e-06
4.89904e-06
0.000748561
2.96526e-06
5.17734e-06
0.000860526
5.46798e-06
6.65734e-06
0.000880368
7.96419e-07
4.90961e-06
0.000873823
4.0795e-06
2.85682e-06
0.000869619
3.70032e-06
7.61974e-07
0.000870083
3.68964e-06
-1.63407e-06
0.000876322
4.06259e-06
-1.3096e-06
0.000884446
7.0454e-07
-1.71622e-06
0.000862834
5.58562e-06
0.000759276
3.08878e-06
5.42711e-06
0.000740257
2.878e-06
5.26567e-06
0.000855155
5.53346e-06
7.14172e-06
0.000878022
4.71853e-07
5.57144e-06
0.00087138
4.01487e-06
3.79615e-06
0.000868019
3.3758e-06
1.91332e-06
0.000868636
3.33054e-06
-4.96991e-07
0.000874723
4.01044e-06
-2.18955e-08
0.00088364
3.35885e-07
-1.2238e-06
0.00085839
5.65262e-06
0.000755008
3.05228e-06
6.04752e-06
0.000731505
2.70674e-06
5.80532e-06
0.000849818
5.58147e-06
8.07698e-06
0.000875467
2.86491e-07
6.58368e-06
0.000868866
4.01071e-06
5.04847e-06
0.000866455
3.10413e-06
3.24702e-06
0.000867414
3.02737e-06
7.56734e-07
0.000873226
3.99163e-06
1.20139e-06
0.000883094
1.08363e-07
-5.61311e-07
0.000854512
5.65069e-06
0.000751476
2.97917e-06
6.9097e-06
0.000722068
2.53207e-06
6.75841e-06
0.000844433
5.54219e-06
9.35041e-06
0.000872691
1.90459e-07
7.95758e-06
0.000866279
3.98832e-06
6.67997e-06
0.000864874
2.86693e-06
4.93713e-06
0.000866405
2.76061e-06
2.27722e-06
0.000871935
3.95995e-06
2.59463e-06
0.00088287
-8.27752e-08
1.89907e-07
0.000851363
5.56601e-06
0.000748709
2.9682e-06
8.13261e-06
0.000711558
2.38519e-06
8.16318e-06
0.000839003
5.40889e-06
1.10483e-05
0.000869709
1.06981e-07
9.83215e-06
0.000863604
3.90247e-06
8.76192e-06
0.000863295
2.66105e-06
7.09222e-06
0.000865573
2.51453e-06
4.16931e-06
0.000870956
3.91531e-06
4.2549e-06
0.000883047
-2.49119e-07
1.04017e-06
0.000849199
5.39401e-06
0.000746725
3.03631e-06
9.77519e-06
0.000699554
2.24085e-06
1.01149e-05
0.00083347
5.20452e-06
1.33733e-05
0.000866419
4.50632e-08
1.23804e-05
0.000860834
3.77811e-06
1.14621e-05
0.000861748
2.48241e-06
9.80639e-06
0.000864953
2.29166e-06
6.54787e-06
0.000870377
3.85479e-06
6.24345e-06
0.000883722
-3.53536e-07
2.08798e-06
0.000848191
5.18086e-06
0.000745709
3.11754e-06
1.19361e-05
0.000685536
2.09531e-06
1.27903e-05
0.000827649
4.9819e-06
1.65155e-05
0.000862667
4.33963e-08
1.57925e-05
0.000857922
3.65228e-06
1.49928e-05
0.000860217
2.34953e-06
1.32675e-05
0.000864594
2.10452e-06
9.56965e-06
0.000870297
3.79665e-06
8.66814e-06
0.000885015
-3.72178e-07
3.41073e-06
0.000848475
4.99328e-06
0.000745954
3.18022e-06
1.47661e-05
0.000668795
1.99118e-06
1.64151e-05
0.000821216
4.80044e-06
2.07117e-05
0.000858257
1.30933e-07
2.03207e-05
0.000854773
3.56028e-06
1.96153e-05
0.000858648
2.2966e-06
1.77192e-05
0.00086453
1.98149e-06
1.34539e-05
0.000870822
3.7622e-06
1.16924e-05
0.000887101
-3.03631e-07
5.08578e-06
0.00085024
4.86306e-06
0.000747782
3.27384e-06
1.84458e-05
0.00064839
1.97705e-06
2.13179e-05
0.000813654
4.70729e-06
2.62651e-05
0.000852971
3.57939e-07
2.62819e-05
0.000851239
3.53837e-06
2.56533e-05
0.000856943
2.35604e-06
2.34743e-05
0.000864778
1.9534e-06
1.84651e-05
0.000872072
3.78128e-06
1.5541e-05
0.00089018
-1.32878e-07
7.23024e-06
0.000853767
4.80562e-06
0.000751563
3.46554e-06
2.31761e-05
0.000623094
2.13753e-06
2.78702e-05
0.000804201
4.77639e-06
3.35915e-05
0.000846498
7.71076e-07
3.4093e-05
0.000847126
3.63207e-06
3.35152e-05
0.000854974
2.56928e-06
3.0931e-05
0.000865328
2.05783e-06
2.49526e-05
0.000874184
3.88903e-06
2.04979e-05
0.000894488
1.68425e-07
9.99772e-06
0.000859435
4.85546e-06
0.000757768
3.80902e-06
2.91709e-05
0.000591326
2.61528e-06
3.65349e-05
0.00079174
5.11383e-06
4.3204e-05
0.000838414
1.43321e-06
4.4272e-05
0.000842172
3.90773e-06
4.37245e-05
0.000852556
2.98806e-06
4.06017e-05
0.000866121
2.35305e-06
3.33701e-05
0.000877299
4.13927e-06
2.69339e-05
0.000900303
6.43538e-07
1.35964e-05
0.000867734
5.06228e-06
0.000767018
4.3636e-06
3.65925e-05
0.000551166
3.58635e-06
4.78881e-05
0.000774576
5.88542e-06
5.57461e-05
0.000828119
2.45565e-06
5.74629e-05
0.000836013
4.46224e-06
5.69354e-05
0.000849418
3.68763e-06
5.31483e-05
0.000867017
2.91371e-06
4.43321e-05
0.000881536
4.60152e-06
3.53395e-05
0.000907945
1.37308e-06
1.8309e-05
0.000879286
5.50094e-06
0.000780127
5.21661e-06
4.54668e-05
0.000500457
5.25958e-06
6.25338e-05
0.000750223
7.30219e-06
7.19959e-05
0.000814668
4.00586e-06
7.44806e-05
0.000828112
5.43566e-06
7.39806e-05
0.00084515
4.78844e-06
6.9432e-05
0.000867729
3.85779e-06
5.86678e-05
0.000886945
5.37818e-06
4.63917e-05
0.000917795
2.44873e-06
2.45385e-05
0.000894887
6.27591e-06
0.000798193
6.48892e-06
5.55827e-05
0.000436991
7.90176e-06
8.09153e-05
0.000715244
9.66138e-06
9.28103e-05
0.000796498
6.29187e-06
9.62936e-05
0.000817637
7.01035e-06
9.59223e-05
0.000839096
6.44628e-06
9.05945e-05
0.000867731
5.34765e-06
7.75036e-05
0.00089343
6.62701e-06
6.10627e-05
0.000930261
3.99763e-06
3.28662e-05
0.000915558
7.54886e-06
0.00082272
8.35618e-06
6.62185e-05
0.000359173
1.16189e-05
0.000103048
0.000665243
1.31876e-05
0.000118993
0.000770936
9.63275e-06
0.000123999
0.000803189
9.45948e-06
0.000124073
0.000830168
8.87188e-06
0.000118147
0.000866062
7.61555e-06
0.00010246
0.000900566
8.57266e-06
8.07796e-05
0.000945718
6.24397e-06
4.42024e-05
0.000942616
9.54229e-06
0.000855869
1.10693e-05
7.57998e-05
0.0002672
1.6195e-05
0.000127766
0.000595379
1.79125e-05
0.000150912
0.000733482
1.43221e-05
0.000158809
0.000782151
1.31574e-05
0.000160061
0.000816561
1.23722e-05
0.000154108
0.000861082
1.09524e-05
0.000135867
0.000907303
1.1523e-05
0.000107753
0.000964367
9.48646e-06
5.99656e-05
0.000977829
1.25963e-05
0.000900858
1.49923e-05
8.15475e-05
0.00016488
2.07968e-05
0.000151774
0.000501767
2.34008e-05
0.000187676
0.00067705
2.05441e-05
0.000201807
0.000749415
1.86188e-05
0.000205904
0.000795075
1.74039e-05
0.000201165
0.000850077
1.57595e-05
0.000181096
0.000911513
1.58759e-05
0.000145536
0.000985808
1.41384e-05
8.27433e-05
0.00102346
1.71777e-05
0.000962941
2.06733e-05
7.85298e-05
6.33125e-05
2.30711e-05
0.000168518
0.000383513
2.828e-05
0.00022582
0.000591351
2.84075e-05
0.000253273
0.00069532
2.66512e-05
0.000264098
0.000759573
2.46847e-05
0.000263127
0.000828513
2.25447e-05
0.000243179
0.000909329
2.21425e-05
0.000199935
0.00100835
2.07137e-05
0.000116772
0.00108267
2.39675e-05
0.00105081
2.89057e-05
5.76269e-05
-1.58102e-05
2.15348e-05
0.000167976
0.00024281
3.03685e-05
0.000257939
0.00046405
3.73443e-05
0.000310531
0.00060454
3.81891e-05
0.000336365
0.000698317
3.54207e-05
0.00034464
0.000788076
3.21577e-05
0.000329484
0.000893499
3.0984e-05
0.000280943
0.00102697
2.99129e-05
0.000172816
0.00115684
3.39459e-05
0.00118257
4.10452e-05
1.19371e-05
-5.45498e-05
2.68538e-05
0.00014095
7.70925e-05
3.67225e-05
0.000272575
0.000282999
4.94305e-05
0.000366758
0.000456499
5.38563e-05
0.000423384
0.000591034
5.06494e-05
0.000452318
0.000713635
4.54972e-05
0.000451482
0.000851311
4.30113e-05
0.000404684
0.00103152
4.22314e-05
0.000268293
0.00124517
4.80547e-05
0.00139212
5.87448e-05
6.87132e-07
-8.3983e-05
2.88352e-05
0.000103081
-7.22827e-05
4.70261e-05
0.000252032
6.60362e-05
6.80327e-05
0.000393153
0.000237714
7.76679e-05
0.00050632
0.000404007
7.38573e-05
0.000584298
0.000570543
6.51055e-05
0.000624727
0.000751222
5.96495e-05
0.00059621
0.00100164
5.83938e-05
0.000475827
0.00129756
6.79922e-05
0.0017826
8.53362e-05
7.74923e-05
3.60146e-06
-0.000164991
0.00017747
2.26004e-05
-0.000194802
0.000284029
5.85683e-05
-9.90402e-05
0.00040849
8.62363e-05
2.70662e-05
0.000559076
9.48045e-05
0.00015866
0.000711324
8.90637e-05
0.00032927
0.00085055
7.96094e-05
0.000532428
0.000902977
7.60617e-05
0.000873195
0.000890602
8.60015e-05
0.00122397
0.000120124
0.00255311
5.49628e-05
0.000971527
2.29593e-05
2.09945e-05
0.00106794
2.09416e-05
6.5752e-06
0.00105002
2.1474e-05
2.31148e-06
0.00103958
2.16373e-05
6.95726e-08
0.00103767
2.17651e-05
-2.18051e-06
0.00103768
2.17643e-05
-6.46984e-06
0.0010396
2.16352e-05
-2.09592e-05
0.00105009
2.14692e-05
-5.51202e-05
0.00106809
2.09411e-05
0.000971381
2.2995e-05
3.79598e-05
0.000941427
2.32763e-05
2.37008e-05
0.00109659
2.34856e-05
1.31401e-05
0.00107744
2.31095e-05
5.86433e-06
0.00106329
2.3188e-05
2.01902e-07
0.00106006
2.33625e-05
-5.48464e-06
0.00106009
2.33582e-05
-1.28291e-05
0.00106337
2.31731e-05
-2.3458e-05
0.00107751
2.31186e-05
-3.76892e-05
0.00109659
2.35527e-05
0.000941637
2.32812e-05
2.22347e-05
0.000918687
1.6371e-05
1.80131e-05
0.00110513
1.7698e-05
1.17546e-05
0.00109064
1.66369e-05
5.77649e-06
0.00107606
1.64912e-05
3.82798e-07
0.0010726
1.66567e-05
-5.04491e-06
0.00107265
1.66512e-05
-1.11139e-05
0.0010762
1.64852e-05
-1.7475e-05
0.00109079
1.66212e-05
-2.17311e-05
0.00110508
1.7751e-05
0.000919423
1.63455e-05
1.33209e-05
0.000902119
1.16451e-05
1.43624e-05
0.00110309
1.39764e-05
9.79816e-06
0.00109586
1.29496e-05
4.84476e-06
0.0010821
1.27574e-05
5.80682e-07
0.00107834
1.29663e-05
-3.71974e-06
0.00107843
1.29607e-05
-8.78954e-06
0.00108233
1.27504e-05
-1.35005e-05
0.00109614
1.29131e-05
-1.25733e-05
0.00110314
1.39523e-05
0.00090357
1.16602e-05
8.91749e-06
0.000889316
8.87017e-06
1.27192e-05
0.0010956
1.21265e-05
8.81636e-06
0.00109652
1.09221e-05
4.42751e-06
0.00108408
1.104e-05
8.21237e-07
0.00107989
1.13234e-05
-2.83149e-06
0.00108002
1.13197e-05
-7.37061e-06
0.00108443
1.10348e-05
-1.14882e-05
0.0010969
1.09325e-05
-7.88796e-06
0.00109583
1.21166e-05
0.000891798
8.85717e-06
7.07606e-06
0.000878988
6.81465e-06
1.15421e-05
0.00108681
1.06798e-05
8.05684e-06
0.00109509
9.20932e-06
4.29125e-06
0.00108421
9.60111e-06
1.11052e-06
0.0010797
9.83291e-06
-2.133e-06
0.00107987
9.84804e-06
-6.11015e-06
0.00108476
9.58571e-06
-9.92941e-06
0.00109572
9.17311e-06
-5.70763e-06
0.00108731
1.07363e-05
0.000882887
6.80937e-06
6.65453e-06
0.000870468
5.0349e-06
1.11124e-05
0.00107803
9.96909e-06
7.52231e-06
0.00109315
7.92312e-06
4.28243e-06
0.00108378
8.42584e-06
1.4797e-06
0.00107901
8.50174e-06
-1.41296e-06
0.00107929
8.48489e-06
-4.90638e-06
0.00108459
8.39789e-06
-8.84247e-06
0.00109421
7.74862e-06
-4.80831e-06
0.00107917
9.88339e-06
0.000876133
5.19783e-06
6.74732e-06
0.000862991
3.80368e-06
1.08358e-05
0.00107005
9.31829e-06
7.29264e-06
0.00109126
6.79604e-06
4.45584e-06
0.00108319
7.71029e-06
1.97207e-06
0.00107809
7.6234e-06
-6.68352e-07
0.00107862
7.53426e-06
-3.82395e-06
0.00108435
7.68084e-06
-7.69333e-06
0.00109269
6.71273e-06
-4.31896e-06
0.00107225
9.10697e-06
0.000870924
4.04984e-06
7.2048e-06
0.000855852
2.92288e-06
1.07351e-05
0.00106326
8.74859e-06
7.40266e-06
0.00108954
5.87901e-06
4.87829e-06
0.00108261
7.20916e-06
2.60419e-06
0.00107725
6.84132e-06
1.01897e-07
0.0010781
6.73697e-06
-2.85607e-06
0.00108421
7.18197e-06
-6.67717e-06
0.00109142
5.8194e-06
-4.00651e-06
0.00106666
8.53102e-06
0.000866874
3.14378e-06
7.79081e-06
0.00084866
2.30306e-06
1.09949e-05
0.00105722
8.3959e-06
7.89626e-06
0.00108792
5.21084e-06
5.56094e-06
0.00108212
6.86785e-06
3.42101e-06
0.00107662
6.16827e-06
9.81059e-07
0.00107782
6.07152e-06
-1.92467e-06
0.00108432
6.83067e-06
-5.75161e-06
0.00109059
5.01057e-06
-3.60835e-06
0.00106202
8.17011e-06
0.000863832
2.49856e-06
8.50319e-06
0.000840918
1.96893e-06
1.12378e-05
0.00105228
7.80933e-06
8.55433e-06
0.00108643
4.48869e-06
6.48521e-06
0.00108157
6.65118e-06
4.47087e-06
0.00107611
5.66184e-06
2.09543e-06
0.00107762
5.63042e-06
-7.91297e-07
0.00108462
6.60415e-06
-4.51283e-06
0.00109011
4.32966e-06
-3.05211e-06
0.00105857
7.6524e-06
0.000861688
2.08303e-06
9.36884e-06
0.000832359
1.74581e-06
1.1797e-05
0.00104812
7.29951e-06
9.57844e-06
0.00108493
3.93065e-06
7.7488e-06
0.00108098
6.43387e-06
5.82478e-06
0.00107576
5.15997e-06
3.4868e-06
0.00107756
5.17799e-06
5.47839e-07
0.00108513
6.40882e-06
-3.17675e-06
0.00109004
3.73801e-06
-2.35309e-06
0.0010561
7.23586e-06
0.000860568
1.74815e-06
1.04273e-05
0.00082283
1.51134e-06
1.28746e-05
0.00104414
6.96936e-06
1.11075e-05
0.00108323
3.5999e-06
9.44935e-06
0.0010803
6.26497e-06
7.60072e-06
0.00107553
4.76763e-06
5.23851e-06
0.00107772
4.74373e-06
2.15451e-06
0.00108589
6.26312e-06
-1.71743e-06
0.0010904
3.27543e-06
-1.46619e-06
0.0010543
6.95734e-06
0.000860689
1.46202e-06
1.17714e-05
0.000812046
1.27712e-06
1.44861e-05
0.00103992
6.73289e-06
1.31956e-05
0.00108122
3.36746e-06
1.1705e-05
0.00107945
6.14566e-06
9.9244e-06
0.00107532
4.49849e-06
7.49066e-06
0.00107806
4.40222e-06
4.16838e-06
0.00108694
6.14946e-06
4.50989e-08
0.00109129
2.90092e-06
-3.88177e-07
0.00105323
6.70862e-06
0.000862167
1.26445e-06
1.35198e-05
0.000799553
1.0924e-06
1.67177e-05
0.00103518
6.54643e-06
1.59795e-05
0.00107881
3.21397e-06
1.46765e-05
0.00107837
6.06182e-06
1.29537e-05
0.0010751
4.31763e-06
1.03986e-05
0.00107861
4.13893e-06
6.74579e-06
0.00108835
6.06364e-06
2.26259e-06
0.00109283
2.59618e-06
8.75594e-07
0.00105319
6.44403e-06
0.000865041
1.19603e-06
1.58324e-05
0.000784739
9.96552e-07
1.97597e-05
0.00102964
6.43953e-06
1.96585e-05
0.00107591
3.1547e-06
1.85726e-05
0.00107702
6.01272e-06
1.68946e-05
0.00107487
4.22034e-06
1.41606e-05
0.0010794
3.95256e-06
1.00559e-05
0.00109023
6.00216e-06
5.05734e-06
0.00109516
2.38188e-06
2.39941e-06
0.00105454
6.19228e-06
0.000869473
1.25552e-06
1.88666e-05
0.000766829
1.04475e-06
2.38214e-05
0.00102299
6.41912e-06
2.44968e-05
0.00107237
3.25038e-06
2.3665e-05
0.00107538
6.03629e-06
2.2012e-05
0.00107468
4.2275e-06
1.90263e-05
0.0010805
3.85859e-06
1.43227e-05
0.00109275
5.98813e-06
8.57755e-06
0.00109853
2.26706e-06
4.31471e-06
0.00105764
5.99068e-06
0.000875834
1.43461e-06
2.27969e-05
0.000744897
1.29571e-06
2.92254e-05
0.00101481
6.54925e-06
3.08144e-05
0.00106804
3.52946e-06
3.02941e-05
0.00107338
6.17219e-06
2.86472e-05
0.00107454
4.37858e-06
2.53191e-05
0.00108203
3.88203e-06
1.98374e-05
0.0010961
6.04513e-06
1.30458e-05
0.00110324
2.27542e-06
6.76593e-06
0.00106292
5.87365e-06
0.000884673
1.75053e-06
2.78089e-05
0.000717902
1.82435e-06
3.64149e-05
0.00100438
6.96315e-06
3.90465e-05
0.00106279
4.07363e-06
3.88997e-05
0.00107097
6.48783e-06
3.72389e-05
0.00107449
4.72369e-06
3.34634e-05
0.00108411
4.06935e-06
2.69875e-05
0.00110052
6.2189e-06
1.87642e-05
0.00110969
2.43191e-06
9.92501e-06
0.00107096
5.87979e-06
0.00089673
2.2456e-06
3.40855e-05
0.000684629
2.79705e-06
4.58566e-05
0.000990716
7.79303e-06
4.97249e-05
0.00105641
4.98202e-06
5.00301e-05
0.00106807
7.08018e-06
4.83462e-05
0.00107454
5.33869e-06
4.40142e-05
0.0010869
4.47648e-06
3.62886e-05
0.00110631
6.56141e-06
2.61439e-05
0.00111843
2.79896e-06
1.40263e-05
0.00108253
6.06772e-06
0.000913003
2.98524e-06
4.17332e-05
0.000643695
4.48322e-06
5.80229e-05
0.00097254
9.20751e-06
6.34852e-05
0.0010486
6.37955e-06
6.43589e-05
0.00106459
8.06216e-06
6.26887e-05
0.00107467
6.34877e-06
5.77056e-05
0.00109055
5.21227e-06
4.84308e-05
0.00111382
7.15763e-06
3.57598e-05
0.00113011
3.45964e-06
1.94073e-05
0.00109866
6.52439e-06
0.000934846
4.06738e-06
5.07863e-05
0.000593652
7.18283e-06
7.3485e-05
0.000947985
1.15375e-05
8.11017e-05
0.0010388
8.49135e-06
8.27177e-05
0.00106041
9.59488e-06
8.11812e-05
0.00107478
7.90132e-06
7.55222e-05
0.00109514
6.437e-06
6.43989e-05
0.00112344
8.15818e-06
4.84373e-05
0.00114557
4.51887e-06
2.65718e-05
0.00112071
7.37968e-06
0.000964153
5.63503e-06
6.09958e-05
0.000533009
1.12935e-05
9.24561e-05
0.000914665
1.5067e-05
0.000103372
0.00102593
1.16107e-05
0.000106113
0.0010552
1.19502e-05
0.000104979
0.00107461
1.01996e-05
9.87905e-05
0.00110062
8.34895e-06
8.55891e-05
0.00113549
9.74035e-06
6.54245e-05
0.00116583
6.17298e-06
3.62883e-05
0.0011506
8.81185e-06
0.00100362
7.89995e-06
7.15824e-05
0.000460653
1.69972e-05
0.000114753
0.000869277
2.01504e-05
0.000131027
0.00100789
1.61048e-05
0.000135747
0.00104816
1.5495e-05
0.000135586
0.0010736
1.35618e-05
0.000129328
0.00110662
1.12336e-05
0.000114028
0.00115018
1.21499e-05
8.86554e-05
0.00119204
8.66665e-06
4.98036e-05
0.00119097
1.10923e-05
0.00105727
1.11637e-05
8.112e-05
0.000376613
2.37487e-05
0.000139321
0.000807515
2.69831e-05
0.000164453
0.000980832
2.24893e-05
0.000173011
0.00103748
2.07606e-05
0.000174964
0.00107063
1.84421e-05
0.000169679
0.00111216
1.5517e-05
0.000152777
0.00116724
1.57393e-05
0.000121305
0.00122533
1.23322e-05
6.93778e-05
0.00124552
1.45784e-05
0.00113146
1.58641e-05
8.68974e-05
0.000282913
2.99072e-05
0.000163074
0.000724729
3.49082e-05
0.000202977
0.000938126
3.12282e-05
0.000219373
0.00101924
2.85144e-05
0.000225721
0.00106354
2.54364e-05
0.000223448
0.00111532
2.16748e-05
0.00020652
0.00118536
2.09593e-05
0.000168679
0.00126633
1.75665e-05
9.87971e-05
0.00131964
1.97348e-05
0.0012366
2.25672e-05
8.49775e-05
0.000187124
3.23808e-05
0.000180689
0.000617818
4.15851e-05
0.000243787
0.000870199
4.21858e-05
0.000275547
0.000985938
3.97426e-05
0.000290962
0.00104819
3.53656e-05
0.000295588
0.00111268
3.01829e-05
0.000282453
0.00120134
2.81479e-05
0.000240146
0.00131382
2.47272e-05
0.000147928
0.00141862
2.71697e-05
0.00139354
3.20254e-05
6.94456e-05
0.000113681
3.0907e-05
0.000186035
0.000491517
4.64545e-05
0.000281826
0.000769127
5.47254e-05
0.000340668
0.000926486
5.44769e-05
0.000373989
0.00101709
4.84376e-05
0.000392527
0.00109895
4.06841e-05
0.00039117
0.00120905
3.66522e-05
0.000351364
0.00136263
3.32211e-05
0.0002332
0.00154785
3.69679e-05
0.00164057
4.49046e-05
4.90893e-05
7.32252e-05
2.02895e-05
0.00017447
0.00036435
4.8847e-05
0.000304085
0.000640726
6.68407e-05
0.000405034
0.000832379
7.08431e-05
0.000474371
0.000958268
6.33563e-05
0.000521067
0.00106565
5.172e-05
0.000548106
0.0011973
4.43544e-05
0.000523117
0.00140543
4.05776e-05
0.00042103
0.00167012
4.78119e-05
0.00208576
6.11761e-05
6.69163e-05
-1.49704e-05
2.50632e-05
0.000179047
3.11833e-05
0.000243701
0.000317337
5.86694e-05
0.000502375
0.000453073
6.77594e-05
0.000715153
0.000573556
6.16637e-05
0.000870954
0.000675931
4.84747e-05
0.00100389
0.000773494
3.83172e-05
0.00114106
0.000805615
3.43739e-05
0.00141502
0.00080044
4.75133e-05
0.00171381
7.65884e-05
0.00292976
5.71247e-05
0.000957521
8.31425e-06
2.15247e-05
0.00105003
6.5097e-06
6.46729e-06
0.00103013
6.4078e-06
2.16974e-06
0.00101952
6.4188e-06
6.33139e-08
0.00101744
6.43224e-06
-2.05134e-06
0.00101745
6.43128e-06
-6.37514e-06
0.00101955
6.41621e-06
-2.15297e-05
0.00103022
6.40501e-06
-5.73726e-05
0.00105027
6.51787e-06
0.000957293
8.33072e-06
4.0059e-05
0.000927673
1.30702e-05
2.3382e-05
0.00107725
1.29593e-05
1.27142e-05
0.00105138
1.25361e-05
5.82135e-06
0.00103709
1.25295e-05
1.83376e-07
0.00103391
1.25468e-05
-5.4796e-06
0.00103394
1.25432e-05
-1.24413e-05
0.00103718
1.2518e-05
-2.30917e-05
0.00105148
1.25201e-05
-3.96429e-05
0.00107741
1.29746e-05
0.000927804
1.31312e-05
2.37685e-05
0.00090898
1.13049e-05
1.70073e-05
0.0010903
1.1423e-05
1.10476e-05
0.00106329
1.0708e-05
5.66748e-06
0.00104827
1.06989e-05
3.70797e-07
0.00104514
1.07375e-05
-4.95372e-06
0.0010452
1.07343e-05
-1.04063e-05
0.00104844
1.06905e-05
-1.6377e-05
0.00106339
1.06979e-05
-2.32128e-05
0.00109057
1.14351e-05
0.000909603
1.13393e-05
1.38178e-05
0.000897746
9.07442e-06
1.32739e-05
0.00109555
9.28398e-06
8.96309e-06
0.0010721
8.46196e-06
4.55554e-06
0.00105702
8.4306e-06
5.71136e-07
0.00105359
8.51382e-06
-3.45228e-06
0.00105369
8.51042e-06
-7.96969e-06
0.0010573
8.42652e-06
-1.24321e-05
0.00107233
8.46106e-06
-1.31237e-05
0.00109595
9.28571e-06
0.000899102
9.0438e-06
8.02607e-06
0.000891042
7.56279e-06
1.15153e-05
0.00109613
8.07833e-06
8.06442e-06
0.00107914
7.35248e-06
4.10574e-06
0.00106461
7.42891e-06
8.11734e-07
0.00106063
7.59842e-06
-2.5332e-06
0.00106078
7.59546e-06
-6.63858e-06
0.00106504
7.41924e-06
-1.02415e-05
0.00107954
7.34473e-06
-7.03116e-06
0.0010968
8.06712e-06
0.000893372
7.56311e-06
4.89359e-06
0.00088662
6.35994e-06
1.00484e-05
0.00109457
7.09758e-06
7.31968e-06
0.00108475
6.34085e-06
3.98223e-06
0.001071
6.55916e-06
1.10432e-06
0.00106657
6.79043e-06
-1.83672e-06
0.00106679
6.79181e-06
-5.3762e-06
0.00107164
6.54279e-06
-8.36092e-06
0.00108539
6.32341e-06
-3.48672e-06
0.00109563
7.04309e-06
0.000890317
6.38581e-06
3.29877e-06
0.000883006
5.36911e-06
8.80376e-06
0.00109283
6.22517e-06
6.54945e-06
0.0010897
5.24968e-06
3.92205e-06
0.00107649
5.58313e-06
1.47791e-06
0.00107172
5.80999e-06
-1.0751e-06
0.00107204
5.81048e-06
-3.99273e-06
0.00107741
5.56641e-06
-6.81309e-06
0.00109073
5.24086e-06
-1.46249e-06
0.00109402
6.16858e-06
0.000888718
5.34302e-06
2.60481e-06
0.000879532
4.69174e-06
7.99324e-06
0.00109124
5.5379e-06
5.99115e-06
0.00109422
4.29027e-06
4.02531e-06
0.00108139
4.79701e-06
1.95968e-06
0.00107644
4.99059e-06
-2.80225e-07
0.00107686
4.97495e-06
-2.64714e-06
0.00108269
4.78684e-06
-5.29456e-06
0.00109583
4.27957e-06
-2.56823e-07
0.00109263
5.47371e-06
0.000887846
4.67382e-06
2.44339e-06
0.000875857
4.17481e-06
7.60553e-06
0.00108978
5.07044e-06
5.80547e-06
0.00109834
3.58396e-06
4.40676e-06
0.00108575
4.26408e-06
2.56977e-06
0.00108075
4.38781e-06
5.20006e-07
0.00108131
4.35237e-06
-1.39252e-06
0.00108754
4.26049e-06
-3.89144e-06
0.00110062
3.5454e-06
5.44389e-07
0.00109175
4.98917e-06
0.000887326
4.21767e-06
2.54743e-06
0.000871803
3.83036e-06
7.51155e-06
0.00108843
4.80196e-06
5.94969e-06
0.00110209
3.04729e-06
5.04313e-06
0.00108965
3.89411e-06
3.35489e-06
0.00108471
3.91752e-06
1.42442e-06
0.00108547
3.86445e-06
-1.44043e-07
0.00109206
3.9013e-06
-2.64638e-06
0.00110519
2.96618e-06
1.23594e-06
0.00109132
4.72923e-06
0.000887195
3.87315e-06
2.9768e-06
0.000867207
3.60949e-06
7.69727e-06
0.00108702
4.5222e-06
6.36383e-06
0.00110536
2.56813e-06
5.92813e-06
0.00109314
3.61602e-06
4.36401e-06
0.00108841
3.54708e-06
2.54278e-06
0.00108945
3.48894e-06
1.22416e-06
0.00109636
3.63939e-06
-1.30789e-06
0.0011096
2.46354e-06
1.88426e-06
0.00109134
4.45895e-06
0.000887515
3.65636e-06
3.6696e-06
0.000861917
3.3876e-06
8.26282e-06
0.00108541
4.33046e-06
7.18827e-06
0.00110819
2.19939e-06
7.14633e-06
0.00109624
3.39972e-06
5.68195e-06
0.00109183
3.2226e-06
3.91326e-06
0.00109325
3.16799e-06
2.75639e-06
0.00110051
3.43527e-06
1.22069e-07
0.00111395
2.04007e-06
2.57195e-06
0.00109189
4.25233e-06
0.000888372
3.47061e-06
4.60246e-06
0.00085565
3.19769e-06
9.20683e-06
0.00108358
4.21951e-06
8.4917e-06
0.00111057
1.95363e-06
8.77679e-06
0.00109899
3.25122e-06
7.41505e-06
0.00109502
2.96301e-06
5.62702e-06
0.00109691
2.89156e-06
4.51425e-06
0.00110461
3.29634e-06
1.68811e-06
0.00111838
1.6935e-06
3.37418e-06
0.00109304
4.13768e-06
0.000889913
3.30304e-06
5.87733e-06
0.000848031
3.04076e-06
1.06204e-05
0.00108142
4.16835e-06
1.03415e-05
0.00111244
1.79351e-06
1.09233e-05
0.00110141
3.161e-06
9.67039e-06
0.00109801
2.77588e-06
7.818e-06
0.00110052
2.67087e-06
6.61984e-06
0.00110876
3.21208e-06
3.51022e-06
0.00112299
1.41095e-06
4.30163e-06
0.00109489
4.08153e-06
0.000892327
3.16117e-06
7.61244e-06
0.000838602
2.93035e-06
1.26509e-05
0.00107879
4.16081e-06
1.28681e-05
0.00111375
1.7118e-06
1.37355e-05
0.00110351
3.11835e-06
1.25907e-05
0.00110084
2.65457e-06
1.06296e-05
0.00110413
2.50388e-06
9.21954e-06
0.00111308
3.17157e-06
5.70386e-06
0.00112793
1.18748e-06
5.38242e-06
0.00109762
4.05241e-06
0.000895851
3.06235e-06
9.9254e-06
0.000826812
2.88257e-06
1.54829e-05
0.00107548
4.2128e-06
1.62628e-05
0.00111442
1.71964e-06
1.74099e-05
0.00110527
3.12534e-06
1.63667e-05
0.00110352
2.60153e-06
1.42426e-05
0.00110783
2.39385e-06
1.24714e-05
0.0011177
3.16962e-06
8.38458e-06
0.00113339
1.03078e-06
6.71034e-06
0.00110146
4.03772e-06
0.000900794
3.03159e-06
1.29604e-05
0.000811983
2.93422e-06
1.93135e-05
0.00107122
4.34517e-06
2.07668e-05
0.00111439
1.85103e-06
2.21991e-05
0.00110669
3.20144e-06
2.12458e-05
0.00110609
2.63207e-06
1.88869e-05
0.00111172
2.35482e-06
1.65882e-05
0.00112279
3.21622e-06
1.17171e-05
0.00113959
9.49616e-07
8.39497e-06
0.00110674
4.04496e-06
0.000907549
3.08273e-06
1.68676e-05
0.000793288
3.14372e-06
2.44149e-05
0.00106565
4.593e-06
2.66738e-05
0.00111354
2.1343e-06
2.84141e-05
0.00110776
3.37743e-06
2.75436e-05
0.00110859
2.77185e-06
2.48627e-05
0.00111589
2.40817e-06
2.18391e-05
0.00112855
3.32853e-06
1.59179e-05
0.00114684
9.65469e-07
1.05742e-05
0.00111388
4.09131e-06
0.000916652
3.23027e-06
2.17895e-05
0.000769761
3.58182e-06
3.11316e-05
0.00105825
5.02978e-06
3.43602e-05
0.00111178
2.62813e-06
3.64503e-05
0.00110848
3.70107e-06
3.56595e-05
0.00111106
3.06019e-06
3.25589e-05
0.00112049
2.58852e-06
2.8584e-05
0.00113523
3.53513e-06
2.12697e-05
0.0011555
1.10274e-06
1.34062e-05
0.00112344
4.20671e-06
0.000928811
3.50201e-06
2.78758e-05
0.000740347
4.35524e-06
3.9881e-05
0.0010483
5.75683e-06
4.42867e-05
0.00110896
3.40931e-06
4.67931e-05
0.00110883
4.24365e-06
4.61006e-05
0.00111356
3.55266e-06
4.24817e-05
0.00112566
2.94348e-06
3.72901e-05
0.00114312
3.87845e-06
2.81578e-05
0.00116605
1.39966e-06
1.71207e-05
0.00113612
4.43223e-06
0.000944984
3.94221e-06
3.52305e-05
0.000703999
5.62127e-06
5.11128e-05
0.00103474
6.90548e-06
5.70017e-05
0.00110489
4.57325e-06
6.00248e-05
0.00110879
5.0957e-06
5.95009e-05
0.00111612
4.33122e-06
5.52958e-05
0.00113155
3.54505e-06
4.85952e-05
0.00115258
4.41892e-06
3.71089e-05
0.0011791
1.912e-06
2.20241e-05
0.00115292
4.82776e-06
0.000966468
4.61682e-06
4.38015e-05
0.000659792
7.61051e-06
6.52326e-05
0.0010162
8.66031e-06
7.31308e-05
0.00109927
6.23667e-06
7.68438e-05
0.00110831
6.37339e-06
7.66435e-05
0.00111874
5.50175e-06
7.18725e-05
0.00113828
4.4957e-06
6.33872e-05
0.00116399
5.24683e-06
4.88775e-05
0.00119543
2.71708e-06
2.85872e-05
0.00117513
5.47421e-06
0.000995082
5.61704e-06
5.33685e-05
0.00060721
1.05316e-05
8.24679e-05
0.000990974
1.1215e-05
9.33094e-05
0.00109149
8.56763e-06
9.80704e-05
0.00110728
8.23969e-06
9.85081e-05
0.00112131
7.20195e-06
9.33734e-05
0.00114586
5.92194e-06
8.29103e-05
0.00117774
6.47563e-06
6.45963e-05
0.00121601
3.92277e-06
3.75098e-05
0.00120457
6.47885e-06
0.00103343
7.06746e-06
6.34317e-05
0.00054646
1.43425e-05
0.000102713
0.000957073
1.47899e-05
0.000118078
0.00108044
1.18061e-05
0.000124616
0.00110535
1.091e-05
0.000126311
0.00112359
9.6139e-06
0.000121365
0.00115408
7.97906e-06
0.000108974
0.00119406
8.23486e-06
8.60117e-05
0.001242
5.65637e-06
4.99345e-05
0.00124378
7.97371e-06
0.00108542
9.11915e-06
7.303e-05
0.000478394
1.88126e-05
0.00012508
0.000912557
1.94688e-05
0.000147625
0.00106426
1.6138e-05
0.000157411
0.00110173
1.46112e-05
0.000161514
0.001125
1.2941e-05
0.000157954
0.00116234
1.08364e-05
0.000144276
0.00121284
1.06529e-05
0.000116003
0.00127459
8.03038e-06
6.79352e-05
0.00129635
1.00872e-05
0.0011573
1.1932e-05
8.07416e-05
0.000404442
2.31467e-05
0.000147794
0.000855465
2.49666e-05
0.00018147
0.00104016
2.16736e-05