/*--------------------------------*- C++ -*----------------------------------*\
| =========                 |                                                 |
| \\      /  F ield         | OpenFOAM: The Open Source CFD Toolbox           |
|  \\    /   O peration     | Version:  4.1                                   |
|   \\  /    A nd           | Web:      www.OpenFOAM.org                      |
|    \\/     M anipulation  |                                                 |
\*---------------------------------------------------------------------------*/
FoamFile
{
    version     2.0;
    format      ascii;
    class       volVectorField;
    location    "1400";
    object      U;
}
// * * * * * * * * * * * * * * * * * * * * * * * * * * * * * * * * * * * * * //

dimensions      [0 1 -1 0 0 0 0];

internalField   nonuniform List<vector> 
12000
(
(0.0919747 -0.00967873 0.00967493)
(0.0965839 -0.00181248 0.0106227)
(0.0959862 -0.0013511 0.0110362)
(0.0955936 -0.000558259 0.0110607)
(0.0954958 -0.00015089 0.0110912)
(0.095496 0.000133209 0.0110913)
(0.0955943 0.000541749 0.0110612)
(0.0959871 0.00133626 0.0110375)
(0.096585 0.00179751 0.0106189)
(0.091978 0.00967976 0.00967317)
(0.086198 -0.00378799 0.00377955)
(0.0951946 -0.00252535 0.00516827)
(0.0937624 -0.00194711 0.00563523)
(0.0926814 -0.000879643 0.00561916)
(0.0923444 -0.000278067 0.00565561)
(0.0923459 0.000232978 0.00565546)
(0.0926857 0.000837007 0.0056189)
(0.0937682 0.00190737 0.00563628)
(0.0951993 0.00248514 0.00517266)
(0.0862115 0.00378559 0.00378936)
(0.0822833 0.000821825 -0.000837367)
(0.093432 -0.00254422 0.000110982)
(0.0920379 -0.00163164 0.000405763)
(0.0907831 -0.000789481 0.000414025)
(0.0903 -0.000299855 0.000453812)
(0.0903042 0.000221201 0.00045391)
(0.0907953 0.000716147 0.00041515)
(0.0920583 0.00156522 0.000415844)
(0.0934476 0.00248964 0.000107369)
(0.0823357 -0.000852098 -0.000840416)
(0.0795833 0.00272829 -0.00275432)
(0.0911271 -0.00249783 -0.00246818)
(0.0903324 -0.00117024 -0.00236309)
(0.089269 -0.000663549 -0.00229007)
(0.088757 -0.000301004 -0.00223931)
(0.088765 0.000180806 -0.00223964)
(0.0892939 0.000553073 -0.00229025)
(0.0903633 0.00107321 -0.00236397)
(0.0911594 0.00242313 -0.00247801)
(0.0796961 -0.00278678 -0.00276538)
(0.0781954 0.00319769 -0.00323551)
(0.0894916 -0.00242176 -0.00344692)
(0.0893381 -0.000786864 -0.00353672)
(0.0884899 -0.000623744 -0.00340812)
(0.0879681 -0.000312893 -0.00335226)
(0.0879834 0.000140269 -0.00335419)
(0.0885342 0.000465891 -0.00341434)
(0.0894033 0.000650112 -0.00356512)
(0.0895492 0.00232073 -0.00345843)
(0.0783894 -0.00327934 -0.00324631)
(0.0774496 0.00310335 -0.00315611)
(0.0884267 -0.0023039 -0.00368517)
(0.0888768 -0.000493465 -0.00397748)
(0.0881663 -0.000630923 -0.00377303)
(0.0876286 -0.000324312 -0.00371661)
(0.087651 8.54164e-05 -0.00372163)
(0.0882395 0.000414621 -0.00378337)
(0.0889875 0.00030081 -0.00401836)
(0.0885117 0.00216283 -0.00369351)
(0.0777465 -0.00319972 -0.00315153)
(0.0767879 0.00280066 -0.00287499)
(0.0876108 -0.0021747 -0.00360587)
(0.0886192 -0.00026997 -0.00406197)
(0.0879606 -0.000656104 -0.00378778)
(0.0874113 -0.000331247 -0.00374725)
(0.0874484 7.42148e-06 -0.0037455)
(0.0880685 0.000363118 -0.00379965)
(0.0887809 9.22451e-06 -0.00410431)
(0.0877411 0.00198375 -0.00359159)
(0.0772273 -0.00292432 -0.00285714)
(0.0760544 0.0024333 -0.00253565)
(0.0869648 -0.00205521 -0.00333927)
(0.0884002 -0.000130552 -0.00395467)
(0.0877419 -0.000711817 -0.00363632)
(0.0872188 -0.00034503 -0.00361885)
(0.08726 -8.99307e-05 -0.0036141)
(0.0878967 0.000311786 -0.00364529)
(0.0886193 -0.000216431 -0.00399765)
(0.0871141 0.00180297 -0.00332278)
(0.0766886 -0.00260455 -0.00251583)
(0.0752634 0.00207125 -0.00220889)
(0.0863199 -0.00194411 -0.00304988)
(0.0881531 -6.60898e-05 -0.00377688)
(0.0875142 -0.000788271 -0.00341091)
(0.0870595 -0.000371112 -0.00339953)
(0.0871014 -0.000208847 -0.0034021)
(0.0877287 0.000253723 -0.00341641)
(0.0885024 -0.000398518 -0.00379689)
(0.0865179 0.00160843 -0.00303997)
(0.0761613 -0.0023052 -0.00219006)
(0.0744475 0.00173007 -0.00191368)
(0.0857797 -0.00185849 -0.00271632)
(0.0879207 -6.85695e-05 -0.00355855)
(0.0872598 -0.000887119 -0.00318441)
(0.0868761 -0.000418175 -0.00318289)
(0.0869286 -0.000350422 -0.00319561)
(0.0875485 0.000182427 -0.00318424)
(0.0883966 -0.000552423 -0.00356787)
(0.0860492 0.00140841 -0.00271285)
(0.0756977 -0.0020445 -0.001895)
(0.0736009 0.00141699 -0.00166006)
(0.0852521 -0.00180001 -0.00239005)
(0.0876848 -0.000139866 -0.00333191)
(0.0870145 -0.00101538 -0.0029478)
(0.0867249 -0.000498619 -0.00295502)
(0.086795 -0.000518096 -0.00298298)
(0.0873954 8.79291e-05 -0.00293837)
(0.0883301 -0.00068782 -0.0033296)
(0.0856341 0.00120109 -0.0024024)
(0.0753087 -0.00183035 -0.00163745)
(0.0726992 0.00112251 -0.0014427)
(0.0847108 -0.00177938 -0.00212394)
(0.0874075 -0.000264372 -0.00312775)
(0.0867599 -0.00116919 -0.00272555)
(0.0865686 -0.000618012 -0.00273953)
(0.0866896 -0.000722305 -0.00277077)
(0.0872529 -4.69735e-05 -0.00271085)
(0.0882909 -0.000829501 -0.00310627)
(0.0852725 0.000982739 -0.00214621)
(0.074997 -0.00165574 -0.00141004)
(0.0717098 0.000834525 -0.0012555)
(0.0841683 -0.0018065 -0.00190981)
(0.0871249 -0.000441817 -0.00292794)
(0.0864959 -0.00136388 -0.00253167)
(0.0864082 -0.000787494 -0.00255217)
(0.086596 -0.000970477 -0.00258154)
(0.0871389 -0.00023233 -0.00250838)
(0.0882869 -0.000993718 -0.00290386)
(0.0850025 0.000751365 -0.00193557)
(0.0747552 -0.00151461 -0.00120739)
(0.0705939 0.000544347 -0.00109567)
(0.0836236 -0.00189137 -0.00173337)
(0.0868119 -0.000682975 -0.00274174)
(0.0862232 -0.00161937 -0.00236446)
(0.0862509 -0.00102635 -0.00238921)
(0.0865214 -0.00127377 -0.00241742)
(0.0870578 -0.000477641 -0.00233099)
(0.0883288 -0.00119406 -0.00271842)
(0.0848434 0.000500677 -0.00175653)
(0.0745995 -0.00140682 -0.00102832)
(0.0693068 0.00024104 -0.000959324)
(0.0830622 -0.00204884 -0.00158291)
(0.086467 -0.00100422 -0.00256823)
(0.0859409 -0.00195485 -0.00221734)
(0.0860985 -0.00135647 -0.00224316)
(0.0864721 -0.00165136 -0.00227221)
(0.0870233 -0.000799885 -0.00217323)
(0.0884236 -0.00144543 -0.00254824)
(0.0848047 0.000220767 -0.00159966)
(0.0745552 -0.00133358 -0.000871926)
(0.0677875 -8.86705e-05 -0.000840661)
(0.0824575 -0.00229814 -0.00144882)
(0.0860617 -0.00142845 -0.00240775)
(0.0856413 -0.00239464 -0.00208548)
(0.0859455 -0.00180468 -0.00210818)
(0.0864504 -0.00212801 -0.00214085)
(0.0870435 -0.00122251 -0.00203122)
(0.0885888 -0.00176806 -0.00239027)
(0.0849028 -0.000101343 -0.00145899)
(0.0746524 -0.00129626 -0.000734327)
(0.0659555 -0.00045949 -0.000733611)
(0.0817737 -0.00266467 -0.00131995)
(0.0855829 -0.00198818 -0.00225163)
(0.0853105 -0.00296977 -0.00196534)
(0.085785 -0.00240367 -0.00197933)
(0.0864604 -0.00273546 -0.00201764)
(0.08713 -0.00177475 -0.0019011)
(0.0888439 -0.00218752 -0.00224131)
(0.0851615 -0.000483888 -0.00133097)
(0.074925 -0.00129849 -0.00060968)
(0.0637048 -0.000886799 -0.000629764)
(0.0809434 -0.00317624 -0.00119043)
(0.0850037 -0.00272466 -0.00209172)
(0.0849343 -0.00372224 -0.00185102)
(0.0856048 -0.00319523 -0.00185261)
(0.0865014 -0.00351406 -0.0018977)
(0.0872961 -0.00249454 -0.00177832)
(0.0892084 -0.00273624 -0.00209726)
(0.0856135 -0.00095041 -0.00121151)
(0.0754149 -0.00134646 -0.000490837)
(0.0608959 -0.00138532 -0.000516481)
(0.0798807 -0.0038669 -0.00105286)
(0.0842872 -0.0036886 -0.0019211)
(0.0844875 -0.00470414 -0.00173619)
(0.0853914 -0.00423196 -0.00172225)
(0.0865712 -0.00451607 -0.00177431)
(0.0875549 -0.00343075 -0.00165732)
(0.0897107 -0.00345615 -0.00195254)
(0.0863018 -0.00153192 -0.00109584)
(0.0761753 -0.00145022 -0.000370725)
(0.0573559 -0.00196359 -0.00037838)
(0.0784522 -0.00477419 -0.000891589)
(0.0833861 -0.00494466 -0.00172798)
(0.0839423 -0.0059804 -0.0016114)
(0.0851214 -0.0055788 -0.00158192)
(0.0866614 -0.00580822 -0.00163948)
(0.0879221 -0.00464784 -0.00152994)
(0.0903771 -0.00440372 -0.00179905)
(0.0872823 -0.00226976 -0.000976718)
(0.0772777 -0.00162361 -0.000240362)
(0.0528808 -0.00261611 -0.000196898)
(0.0764575 -0.00593 -0.000686093)
(0.0822291 -0.00656762 -0.00149646)
(0.0832547 -0.00763207 -0.00146275)
(0.084762 -0.00731737 -0.00142221)
(0.0867507 -0.00747642 -0.00148299)
(0.0884059 -0.0062318 -0.00138651)
(0.0912461 -0.00565627 -0.00162747)
(0.0886252 -0.00322039 -0.000846076)
(0.0788159 -0.00188838 -8.98083e-05)
(0.0472462 -0.00331269 5.09845e-05)
(0.073598 -0.00734626 -0.000411282)
(0.0806994 -0.00862918 -0.00120674)
(0.0823613 -0.00975383 -0.0012713)
(0.0842651 -0.00954771 -0.00122943)
(0.0868025 -0.00963251 -0.00129299)
(0.0890065 -0.00829807 -0.00121503)
(0.0923583 -0.00732274 -0.00142686)
(0.090422 -0.00446442 -0.000690957)
(0.0809201 -0.00227602 9.51742e-05)
(0.0402507 -0.00397568 0.000379393)
(0.069498 -0.00898636 -3.61096e-05)
(0.0785991 -0.011176 -0.000830068)
(0.0811542 -0.0124489 -0.00101269)
(0.0835465 -0.0123879 -0.000984691)
(0.086749 -0.01242 -0.00104853)
(0.0897067 -0.0110057 -0.000995164)
(0.0937534 -0.00956236 -0.00118092)
(0.0927895 -0.00612322 -0.000494939)
(0.0837684 -0.00283909 0.000332212)
(0.0317841 -0.0044497 0.000777591)
(0.0636531 -0.0107061 0.000446105)
(0.0755977 -0.0141682 -0.000332769)
(0.0794624 -0.0158116 -0.000648694)
(0.0824712 -0.0159795 -0.000662815)
(0.0864649 -0.0160232 -0.000726352)
(0.0904369 -0.0145765 -0.000700139)
(0.0954688 -0.0126143 -0.000864062)
(0.0958813 -0.00838713 -0.000232209)
(0.0876353 -0.00365687 0.000647818)
(0.0219614 -0.00446791 0.0011754)
(0.0555576 -0.0121831 0.00100318)
(0.0711105 -0.0173822 0.000300024)
(0.0769299 -0.0198707 -0.000131407)
(0.0808104 -0.0204871 -0.000222435)
(0.0857458 -0.0206806 -0.000294046)
(0.0910597 -0.0193169 -0.000296088)
(0.0975116 -0.0168447 -0.000443281)
(0.0999113 -0.0115787 0.000132019)
(0.0929165 -0.00488638 0.00107822)
(0.0113035 -0.00358676 0.00133899)
(0.0448875 -0.0128137 0.00148581)
(0.0643235 -0.0202778 0.0010649)
(0.0729271 -0.0244718 0.000611531)
(0.0781696 -0.0260815 0.000403365)
(0.0842538 -0.0267197 0.000289297)
(0.091276 -0.025672 0.000256678)
(0.0997855 -0.0228299 0.000126911)
(0.105129 -0.0162433 0.000650266)
(0.100407 -0.00674634 0.0016806)
(0.000944208 -0.00101958 0.00126395)
(0.0315134 -0.0116716 0.00162592)
(0.0539362 -0.0219271 0.0018158)
(0.0661717 -0.0290667 0.00163238)
(0.0737463 -0.0327523 0.00133963)
(0.0814486 -0.0344935 0.00111307)
(0.0906512 -0.0342377 0.00101764)
(0.102101 -0.0314926 0.000899751)
(0.111935 -0.0234657 0.00138904)
(0.111165 -0.00997014 0.00253605)
(-0.00359729 0.00198209 0.00178433)
(0.0175394 -0.00781542 0.00210667)
(0.0394684 -0.0209979 0.00274371)
(0.0551314 -0.0326259 0.00291776)
(0.0660823 -0.0402155 0.00264536)
(0.0761978 -0.0444409 0.00227669)
(0.0880409 -0.0459223 0.00206485)
(0.103489 -0.0442602 0.00194429)
(0.120031 -0.0352898 0.00243004)
(0.129068 -0.0151229 0.00376748)
(-0.00652944 -1.32848e-05 0.000526805)
(-0.000382796 -0.00490694 0.00215997)
(0.0185794 -0.0168729 0.00416688)
(0.0372356 -0.0322188 0.00506341)
(0.0528148 -0.0457161 0.00480508)
(0.0670098 -0.0555286 0.00409235)
(0.0826143 -0.0615106 0.00356637)
(0.103617 -0.0633902 0.00331591)
(0.129606 -0.0563159 0.00391793)
(0.156452 -0.0283817 0.00557655)
(-0.0122934 -0.00432491 -0.00199364)
(-0.0146712 -0.0139292 -0.00216696)
(-0.00447138 -0.022896 0.000731007)
(0.0113521 -0.0335354 0.00441742)
(0.0285762 -0.0479449 0.00646904)
(0.0469665 -0.0638757 0.00671125)
(0.0666714 -0.0794344 0.00596599)
(0.0958367 -0.0895266 0.00534695)
(0.129041 -0.101118 0.00556887)
(0.217406 -0.0468649 0.00813576)
(0.096581 -0.0106264 0.0018063)
(0.101407 -0.00140756 0.00140245)
(0.100945 -0.00123261 0.00149079)
(0.100665 -0.000463776 0.00146701)
(0.100621 -0.000115123 0.00148097)
(0.100621 0.000101671 0.00148083)
(0.100666 0.000451873 0.00146659)
(0.100947 0.00122328 0.00148976)
(0.101413 0.00139864 0.00140203)
(0.0965832 0.0106891 0.00181259)
(0.0951844 -0.0051759 0.0025129)
(0.10843 -0.00247852 0.00246464)
(0.106236 -0.00203587 0.00247837)
(0.105017 -0.000801197 0.00243545)
(0.104775 -0.000248871 0.00247217)
(0.104777 0.000209565 0.00247143)
(0.105022 0.000766544 0.00243254)
(0.106248 0.00200168 0.00247565)
(0.108445 0.00243414 0.00246286)
(0.0951759 0.00522456 0.00251712)
(0.0934105 -0.000127582 0.00251871)
(0.111019 -0.00287675 0.00284699)
(0.109137 -0.00173538 0.00284361)
(0.107515 -0.000683942 0.00277766)
(0.107144 -0.000284537 0.00281935)
(0.107148 0.00020882 0.00281819)
(0.107525 0.000614095 0.00277497)
(0.109141 0.00167191 0.00283657)
(0.111013 0.00282287 0.00285115)
(0.0934518 0.000116436 0.0025184)
(0.0910867 0.0024442 0.00245326)
(0.110978 -0.00308124 0.00304141)
(0.109817 -0.00125537 0.0030678)
(0.108301 -0.000551983 0.00302053)
(0.107917 -0.000302272 0.00306617)
(0.107925 0.000186795 0.00306544)
(0.108319 0.000442906 0.00301779)
(0.109841 0.00116031 0.00306226)
(0.110976 0.00300246 0.00304169)
(0.0911883 -0.00249315 0.00245468)
(0.0894231 0.00341633 0.00236334)
(0.109986 -0.0032257 0.00317229)
(0.10969 -0.000857294 0.00317352)
(0.108388 -0.000540144 0.00319552)
(0.107999 -0.000330824 0.00324749)
(0.108009 0.000166343 0.0032468)
(0.108417 0.00038787 0.00319466)
(0.109723 0.000720124 0.00317832)
(0.109998 0.00311658 0.00317003)
(0.0896126 -0.00349854 0.00236103)
(0.0883134 0.003638 0.0022247)
(0.10906 -0.00326995 0.00318928)
(0.109546 -0.000524194 0.00316415)
(0.108392 -0.000593152 0.00324147)
(0.107965 -0.00034977 0.00328088)
(0.107981 0.000125757 0.00328351)
(0.108435 0.000391035 0.00324051)
(0.109591 0.000338572 0.00316649)
(0.1091 0.00313141 0.00320185)
(0.0886204 -0.00375871 0.002222)
(0.0874308 0.00353516 0.00206036)
(0.108257 -0.00330743 0.00320204)
(0.109414 -0.000270333 0.00310049)
(0.108401 -0.000676081 0.003217)
(0.107939 -0.000350653 0.00323502)
(0.107957 5.17393e-05 0.00323127)
(0.108468 0.000408383 0.00321633)
(0.109494 1.72956e-05 0.00309116)
(0.108319 0.00310576 0.00319481)
(0.0879082 -0.00368879 0.00206818)
(0.0866961 0.0032397 0.00189977)
(0.107365 -0.00324643 0.00311656)
(0.109224 -0.000115999 0.00298696)
(0.108368 -0.000770353 0.00317253)
(0.107874 -0.000342711 0.00316588)
(0.107911 -5.47503e-05 0.0031539)
(0.108464 0.000420772 0.00317141)
(0.109361 -0.000234194 0.00299467)
(0.107532 0.00298268 0.00309392)
(0.0873568 -0.00345404 0.00191336)
(0.085931 0.00291574 0.00173846)
(0.106667 -0.00318302 0.00301648)
(0.109047 -3.34416e-05 0.00286812)
(0.108292 -0.000881117 0.0030946)
(0.107762 -0.000340664 0.0030401)
(0.10783 -0.000184473 0.00303138)
(0.108427 0.000425418 0.00309023)
(0.1092 -0.000427615 0.00286098)
(0.106945 0.00284588 0.00299898)
(0.0868588 -0.00319958 0.00175529)
(0.0852338 0.002539 0.0015868)
(0.105992 -0.0030984 0.00288105)
(0.108868 -2.72053e-05 0.00274277)
(0.10824 -0.00101278 0.00301071)
(0.107696 -0.000354242 0.00291039)
(0.107796 -0.000335732 0.00290692)
(0.108426 0.000414646 0.00300273)
(0.109092 -0.000580811 0.00271388)
(0.106399 0.00267091 0.00287175)
(0.0865143 -0.00291016 0.0016065)
(0.0844981 0.00215787 0.00144542)
(0.105443 -0.00298626 0.00270057)
(0.108705 -6.70032e-05 0.00259687)
(0.108184 -0.00115125 0.0029163)
(0.10763 -0.000390275 0.00277263)
(0.10777 -0.000512915 0.00278396)
(0.10844 0.000367923 0.00290176)
(0.109023 -0.000721521 0.00256784)
(0.105998 0.0024429 0.00270488)
(0.0862564 -0.00264292 0.00146687)
(0.0836823 0.00182095 0.00131279)
(0.105007 -0.00292039 0.00253588)
(0.108573 -0.000149439 0.00247272)
(0.108129 -0.00131573 0.0028104)
(0.107589 -0.000460666 0.00262688)
(0.107753 -0.000716864 0.00264371)
(0.108483 0.000284563 0.00279547)
(0.108998 -0.000863138 0.00242438)
(0.105717 0.00221563 0.00255301)
(0.0860864 -0.00243039 0.00134008)
(0.0827814 0.00151571 0.00118778)
(0.104613 -0.00291102 0.00239788)
(0.108413 -0.000291049 0.0023619)
(0.108068 -0.00151737 0.00270554)
(0.107563 -0.000579254 0.00249682)
(0.10776 -0.000955161 0.00250543)
(0.108546 0.000158083 0.00269232)
(0.109014 -0.0010158 0.00229302)
(0.105509 0.00198727 0.00241889)
(0.0860305 -0.00226703 0.00122917)
(0.0817755 0.00122286 0.00107152)
(0.104209 -0.00295388 0.00227189)
(0.108231 -0.000496763 0.00225733)
(0.107992 -0.0017652 0.00260596)
(0.107543 -0.000760469 0.00238431)
(0.107786 -0.00123987 0.00238185)
(0.108636 -2.44455e-05 0.00259364)
(0.109073 -0.00119427 0.00217321)
(0.105359 0.00173919 0.0022894)
(0.0861135 -0.00214274 0.00113343)
(0.0806249 0.000924739 0.000965883)
(0.103767 -0.00305171 0.00215202)
(0.108009 -0.000779953 0.00215995)
(0.107896 -0.00207407 0.00251164)
(0.107521 -0.00102244 0.00228469)
(0.10783 -0.00158446 0.00227108)
(0.108756 -0.000279498 0.00250002)
(0.109191 -0.00141357 0.0020678)
(0.105293 0.00145871 0.00216413)
(0.0863326 -0.00204891 0.00105279)
(0.0792745 0.000605279 0.00087473)
(0.103261 -0.0032238 0.00204235)
(0.107748 -0.00115696 0.00207567)
(0.107775 -0.00246528 0.00242397)
(0.107499 -0.00138712 0.00219817)
(0.107895 -0.00200818 0.00217394)
(0.108919 -0.000625173 0.00241263)
(0.109382 -0.00169192 0.00197831)
(0.105353 0.00113639 0.00204863)
(0.0866915 -0.00198244 0.00098903)
(0.0776612 0.000245411 0.000802912)
(0.102657 -0.00348353 0.00194142)
(0.107429 -0.00165363 0.00201098)
(0.107628 -0.0029657 0.00234881)
(0.107477 -0.00188235 0.00212744)
(0.107988 -0.00253611 0.00209204)
(0.109136 -0.00108525 0.00233519)
(0.109662 -0.00205049 0.00190627)
(0.105568 0.000758714 0.00194763)
(0.0872214 -0.00194653 0.000944788)
(0.0756924 -0.000166604 0.000756525)
(0.10193 -0.00385832 0.00185836)
(0.107038 -0.00230154 0.00196738)
(0.107446 -0.00360855 0.00229021)
(0.10746 -0.00254336 0.00207755)
(0.108118 -0.00320138 0.00202834)
(0.109425 -0.00169051 0.00227063)
(0.110059 -0.00251602 0.00185341)
(0.105978 0.000306445 0.00186549)
(0.0879692 -0.00194825 0.000923476)
(0.0732742 -0.000641064 0.000746097)
(0.101021 -0.00438482 0.0018086)
(0.106564 -0.00314431 0.00195174)
(0.107228 -0.0044377 0.00225583)
(0.10745 -0.00341469 0.00205336)
(0.108295 -0.00404724 0.00198785)
(0.109808 -0.00248235 0.00222465)
(0.110607 -0.00312329 0.0018222)
(0.106631 -0.000245959 0.00180725)
(0.088998 -0.00199588 0.000930362)
(0.0702965 -0.00119132 0.000788889)
(0.0998452 -0.00509484 0.00180598)
(0.105989 -0.00423553 0.00197292)
(0.106965 -0.00550731 0.00225543)
(0.10745 -0.00455224 0.00206297)
(0.108535 -0.00512937 0.00197603)
(0.110312 -0.00351571 0.00220235)
(0.111356 -0.00391958 0.00182076)
(0.107595 -0.000931993 0.00177996)
(0.090393 -0.00210187 0.00097309)
(0.066633 -0.00182321 0.000909181)
(0.0982926 -0.00601422 0.0018664)
(0.105288 -0.00563657 0.00204365)
(0.106647 -0.00688361 0.00230008)
(0.107461 -0.00602579 0.00212059)
(0.108855 -0.0065217 0.00200545)
(0.11097 -0.00486262 0.00221318)
(0.112363 -0.00496982 0.00185772)
(0.108958 -0.00179953 0.00179455)
(0.09227 -0.00228363 0.00106336)
(0.0621254 -0.0025279 0.00113587)
(0.0962213 -0.00718218 0.00202824)
(0.104429 -0.0074162 0.00218616)
(0.106267 -0.00864862 0.00240432)
(0.107475 -0.00792162 0.00224077)
(0.109266 -0.00832093 0.00209443)
(0.11182 -0.00662369 0.00227494)
(0.113703 -0.006367 0.00194334)
(0.110839 -0.00291744 0.00186654)
(0.0947894 -0.00256981 0.00121801)
(0.0566599 -0.00328479 0.00149621)
(0.0933985 -0.00858642 0.00231245)
(0.10333 -0.00963497 0.00243355)
(0.105808 -0.0108987 0.0025972)
(0.107478 -0.0103446 0.00244299)
(0.109772 -0.0106532 0.00226359)
(0.112897 -0.00893772 0.00240676)
(0.115471 -0.00824886 0.00210195)
(0.113399 -0.00439088 0.00201804)
(0.0981759 -0.00300253 0.00146274)
(0.0500522 -0.00400141 0.00199153)
(0.0895819 -0.0101828 0.00274547)
(0.101855 -0.0123226 0.00281569)
(0.105218 -0.0137409 0.00291342)
(0.107433 -0.0134267 0.00276044)
(0.110356 -0.0136887 0.00254376)
(0.114233 -0.0119988 0.00263703)
(0.117773 -0.0108233 0.00236121)
(0.116863 -0.00638626 0.0022827)
(0.102765 -0.00365296 0.00183398)
(0.0422255 -0.00452485 0.00255612)
(0.0843487 -0.0118577 0.00333184)
(0.0997268 -0.0154359 0.00337532)
(0.104392 -0.017281 0.00340569)
(0.107268 -0.0173339 0.0032413)
(0.110966 -0.0176578 0.0029828)
(0.115838 -0.0160902 0.00300728)
(0.120739 -0.0144185 0.00276234)
(0.121552 -0.00918841 0.00270615)
(0.109046 -0.00465474 0.00238797)
(0.0332292 -0.00459695 0.00299975)
(0.0772388 -0.0132959 0.00397998)
(0.0964625 -0.0187698 0.00414589)
(0.103085 -0.021583 0.00415057)
(0.10683 -0.0222798 0.00395178)
(0.111453 -0.0228744 0.00363735)
(0.11764 -0.0216317 0.00357796)
(0.124456 -0.0195643 0.00335546)
(0.127889 -0.0132847 0.00335222)
(0.117944 -0.00620492 0.00319985)
(0.0233638 -0.00385982 0.00301309)
(0.0676983 -0.0139772 0.00443351)
(0.0912105 -0.0218717 0.00511741)
(0.100794 -0.0265577 0.00526689)
(0.105877 -0.0284836 0.0049964)
(0.111609 -0.0297476 0.00457831)
(0.119481 -0.029226 0.00441158)
(0.128999 -0.0271472 0.00421282)
(0.136542 -0.0196648 0.00432157)
(0.130691 -0.00896622 0.00439662)
(0.0142637 -0.00196025 0.00296795)
(0.0560146 -0.0132304 0.00483235)
(0.0830993 -0.0240793 0.00628586)
(0.0965961 -0.0318965 0.00680806)
(0.103837 -0.0361254 0.00647544)
(0.110923 -0.0387762 0.00584449)
(0.12077 -0.0396902 0.00551724)
(0.133945 -0.0385382 0.00534377)
(0.147757 -0.0303018 0.00568753)
(0.151496 -0.0134298 0.0061198)
(0.00823167 -0.000581579 0.00287578)
(0.0425975 -0.0110033 0.00545189)
(0.0713 -0.0242181 0.00771599)
(0.08927 -0.0362784 0.00881975)
(0.1 -0.0446891 0.00847683)
(0.109136 -0.0504063 0.00750971)
(0.121185 -0.054066 0.00687998)
(0.139127 -0.0557525 0.00669489)
(0.16205 -0.049089 0.00751725)
(0.183013 -0.0254152 0.00860876)
(0.00537189 -0.00267583 -2.05301e-05)
(0.0299791 -0.0111505 0.00425788)
(0.056818 -0.024494 0.00772003)
(0.0774428 -0.0389557 0.00966385)
(0.0919011 -0.051986 0.00979838)
(0.104036 -0.0631463 0.00876534)
(0.117613 -0.0732573 0.00776411)
(0.141668 -0.080764 0.00745097)
(0.170811 -0.0897457 0.00884697)
(0.249406 -0.0417998 0.0117852)
(0.0959843 -0.0110399 0.00134357)
(0.100944 -0.00149543 0.0012266)
(0.100652 -0.00117392 0.00116834)
(0.100408 -0.000460561 0.0011798)
(0.100366 -0.000114015 0.00118558)
(0.100366 0.000101858 0.00118546)
(0.100409 0.000450074 0.00117948)
(0.100655 0.00116603 0.00116784)
(0.100949 0.00148966 0.00122674)
(0.0959843 0.0111233 0.00134586)
(0.093754 -0.00564307 0.00192759)
(0.106245 -0.00250356 0.00201318)
(0.103729 -0.001933 0.00191459)
(0.102547 -0.000794358 0.00194063)
(0.102303 -0.000241749 0.00194816)
(0.102305 0.000206453 0.0019477)
(0.102552 0.000763253 0.001939)
(0.103742 0.0019007 0.00191313)
(0.106261 0.00244242 0.00201815)
(0.0937407 0.00568798 0.00192938)
(0.0920411 -0.00043719 0.00159793)
(0.109096 -0.0028698 0.00170044)
(0.106111 -0.00162523 0.00159218)
(0.10445 -0.000652981 0.00162331)
(0.104096 -0.000271811 0.00163168)
(0.1041 0.000198817 0.00163141)
(0.104462 0.000584294 0.00162234)
(0.106119 0.00155769 0.00159078)
(0.109123 0.0028153 0.00170564)
(0.0920667 0.000403158 0.00159707)
(0.0903084 0.00234219 0.00111969)
(0.109776 -0.00308604 0.00121026)
(0.107139 -0.00111868 0.00107145)
(0.105516 -0.000497272 0.0010933)
(0.10516 -0.000289313 0.00110504)
(0.105167 0.000175859 0.00110459)
(0.105537 0.000391537 0.00109304)
(0.107154 0.00101968 0.00106954)
(0.109818 0.00302453 0.00120978)
(0.0903973 -0.00240422 0.00111924)
(0.0892776 0.00354409 0.000714392)
(0.109669 -0.0032309 0.000786)
(0.107628 -0.000688721 0.000618199)
(0.106151 -0.000489645 0.000642849)
(0.105792 -0.000323883 0.000661208)
(0.105804 0.000161611 0.000660905)
(0.106186 0.000340612 0.000642091)
(0.107659 0.00054871 0.000617194)
(0.109708 0.00312091 0.000788446)
(0.0894648 -0.00362162 0.000715809)
(0.0888006 0.00394645 0.000391445)
(0.109491 -0.00323503 0.000427115)
(0.108152 -0.000322096 0.000221069)
(0.106761 -0.000558643 0.000255869)
(0.106354 -0.000346536 0.000276183)
(0.106372 0.00012423 0.000276485)
(0.106813 0.000358024 0.000254857)
(0.1082 0.000131161 0.000220296)
(0.109587 0.0031024 0.000427062)
(0.0890835 -0.00409749 0.00039484)
(0.0884775 0.00399345 0.000131158)
(0.109363 -0.00316681 0.000139915)
(0.108715 -1.61655e-05 -0.000115906)
(0.107374 -0.000646658 -7.4468e-05)
(0.106911 -0.000343113 -6.17606e-05)
(0.106938 4.52838e-05 -6.08941e-05)
(0.10745 0.000384515 -7.58381e-05)
(0.108796 -0.000235949 -0.000119342)
(0.109483 0.00302518 0.000135548)
(0.088929 -0.00420704 0.000139679)
(0.088147 0.00386536 -5.43368e-05)
(0.109211 -0.00308696 -6.38883e-05)
(0.109217 0.000213034 -0.000383577)
(0.107917 -0.000746617 -0.0003264)
(0.107423 -0.000323969 -0.000325072)
(0.10746 -7.08536e-05 -0.000326718)
(0.108026 0.00040513 -0.000327335)
(0.109348 -0.000545048 -0.000388565)
(0.109328 0.00287933 -7.19009e-05)
(0.0888435 -0.00410484 -4.05735e-05)
(0.0877795 0.00365992 -0.000179411)
(0.109058 -0.00301785 -0.000205981)
(0.109645 0.000361419 -0.000583392)
(0.108378 -0.000867885 -0.000501343)
(0.107876 -0.000306205 -0.000512829)
(0.107924 -0.000213189 -0.000518743)
(0.10853 0.000419482 -0.000500771)
(0.109837 -0.000798989 -0.000586217)
(0.109218 0.00271618 -0.0002186)
(0.0887543 -0.00393207 -0.000165008)
(0.0873961 0.003414 -0.000256751)
(0.108903 -0.00294269 -0.000288716)
(0.110029 0.000440587 -0.000728931)
(0.108782 -0.00100732 -0.000621844)
(0.108282 -0.000300488 -0.000649827)
(0.108347 -0.00037951 -0.00065988)
(0.108989 0.000418372 -0.000618422)
(0.110296 -0.00101607 -0.000735191)
(0.109142 0.00254079 -0.000305175)
(0.0887145 -0.00372199 -0.000245594)
(0.0869605 0.00315188 -0.000290935)
(0.108772 -0.00288473 -0.000345054)
(0.110379 0.000464144 -0.000841441)
(0.109149 -0.00116033 -0.000702663)
(0.108662 -0.00031451 -0.000746006)
(0.108751 -0.000572008 -0.000759313)
(0.109426 0.000387202 -0.000696259)
(0.110742 -0.00121515 -0.000849706)
(0.109119 0.00234463 -0.000362754)
(0.0887245 -0.00350807 -0.000287414)
(0.0864733 0.00287311 -0.000303922)
(0.108626 -0.00285163 -0.000379419)
(0.110688 0.000427328 -0.000925682)
(0.109478 -0.00133706 -0.000756322)
(0.109018 -0.000362045 -0.000816083)
(0.10914 -0.000791852 -0.000829318)
(0.109848 0.000321056 -0.000747582)
(0.111179 -0.00140508 -0.000935299)
(0.10915 0.00213744 -0.000397366)
(0.0887821 -0.00331412 -0.000310398)
(0.0859046 0.00258607 -0.000306921)
(0.108455 -0.00284226 -0.000395956)
(0.11095 0.000326748 -0.000980163)
(0.109771 -0.00154459 -0.00078845)
(0.109349 -0.000456799 -0.000864838)
(0.109512 -0.00104522 -0.000879474)
(0.110259 0.000212067 -0.000776762)
(0.111617 -0.00159484 -0.000996877)
(0.109234 0.00191615 -0.000412141)
(0.0888989 -0.00314588 -0.00032245)
(0.08522 0.00229176 -0.00030388)
(0.108257 -0.00287186 -0.000397072)
(0.111163 0.000158088 -0.00101233)
(0.110028 -0.00179227 -0.000803897)
(0.109657 -0.00061195 -0.000895391)
(0.109874 -0.0013414 -0.000913395)
(0.110669 4.70607e-05 -0.000789822)
(0.112065 -0.00179827 -0.00103938)
(0.10938 0.00167319 -0.000412496)
(0.0890929 -0.00300107 -0.000325032)
(0.0843789 0.00198313 -0.000293501)
(0.108021 -0.00295732 -0.000384847)
(0.111322 -8.92693e-05 -0.00102455)
(0.110254 -0.00209483 -0.000806307)
(0.109947 -0.000844121 -0.000910655)
(0.110233 -0.00169289 -0.000933952)
(0.11109 -0.000187465 -0.00079071)
(0.11254 -0.00203369 -0.00106831)
(0.109605 0.00140454 -0.000404789)
(0.0893841 -0.00288033 -0.000317089)
(0.083332 0.00164987 -0.000273648)
(0.10773 -0.00311595 -0.000358759)
(0.111423 -0.00043171 -0.00101894)
(0.110447 -0.00247205 -0.000797577)
(0.110222 -0.0011744 -0.00091208)
(0.110597 -0.00211691 -0.000942806)
(0.111534 -0.000508297 -0.000782496)
(0.113056 -0.00231756 -0.00108434)
(0.109928 0.00110066 -0.000392662)
(0.0898003 -0.002787 -0.000297467)
(0.0820201 0.00127626 -0.000239788)
(0.107358 -0.0033623 -0.000316901)
(0.111457 -0.000891909 -0.00099304)
(0.110606 -0.00294848 -0.000777711)
(0.110484 -0.0016295 -0.000899423)
(0.110975 -0.00263627 -0.000939742)
(0.112016 -0.000937388 -0.000765689)
(0.113634 -0.00267102 -0.00108872)
(0.110378 0.000747589 -0.000377056)
(0.0903764 -0.00272471 -0.000266103)
(0.080366 0.000849046 -0.00018575)
(0.106877 -0.00371665 -0.000256476)
(0.111416 -0.00149927 -0.000943937)
(0.110731 -0.00355404 -0.000744241)
(0.110737 -0.00224239 -0.000870937)
(0.111375 -0.00328109 -0.000923445)
(0.112554 -0.00150378 -0.000739492)
(0.1143 -0.00311827 -0.00107942)
(0.11099 0.000325412 -0.000357006)
(0.0911578 -0.00269972 -0.000222541)
(0.0782828 0.000356361 -0.00010486)
(0.106244 -0.00420221 -0.000168898)
(0.111288 -0.00229232 -0.000864398)
(0.110821 -0.00432679 -0.000692548)
(0.110984 -0.00305418 -0.000822557)
(0.111811 -0.00409033 -0.000890516)
(0.11317 -0.0022458 -0.000701466)
(0.115088 -0.00369184 -0.00105436)
(0.111813 -0.000190154 -0.000330207)
(0.0922058 -0.00271796 -0.00016455)
(0.0756649 -0.000210761 1.63174e-05)
(0.105401 -0.0048486 -4.18479e-05)
(0.111063 -0.00331763 -0.000744148)
(0.110875 -0.00531338 -0.000614209)
(0.111232 -0.00411566 -0.000748027)
(0.112297 -0.00511447 -0.000835511)
(0.113893 -0.00321373 -0.000646943)
(0.116039 -0.00443429 -0.00100975)
(0.112909 -0.000832158 -0.000292484)
(0.093602 -0.00279104 -8.74266e-05)
(0.0724095 -0.000856858 0.000199796)
(0.104257 -0.00568478 0.000142472)
(0.110726 -0.00462848 -0.000570364)
(0.110891 -0.00657047 -0.000497803)
(0.111484 -0.00548797 -0.000637611)
(0.112847 -0.00641895 -0.000750074)
(0.114753 -0.00447426 -0.000568998)
(0.117206 -0.00540489 -0.000938998)
(0.114364 -0.00164518 -0.000237556)
(0.0954585 -0.00293282 1.63165e-05)
(0.0684105 -0.00157334 0.000473825)
(0.102697 -0.00672919 0.000407622)
(0.110252 -0.00628069 -0.000324536)
(0.110866 -0.00816584 -0.000326916)
(0.111743 -0.00724429 -0.000477303)
(0.113476 -0.00808783 -0.000621179)
(0.115789 -0.00611752 -0.000456368)
(0.11866 -0.00668746 -0.000831722)
(0.116288 -0.00269346 -0.000155349)
(0.0979277 -0.00316986 0.000158005)
(0.0635896 -0.00233228 0.000870497)
(0.100562 -0.00798424 0.000783362)
(0.109603 -0.00832093 1.78504e-05)
(0.110795 -0.0101765 -7.856e-05)
(0.112005 -0.00947204 -0.000247738)
(0.114192 -0.0102304 -0.000430747)
(0.117041 -0.00826634 -0.00029304)
(0.120488 -0.00840511 -0.000673468)
(0.118837 -0.00407366 -3.22211e-05)
(0.101228 -0.0035382 0.000353852)
(0.0579187 -0.00307632 0.00140074)
(0.0976672 -0.00942256 0.00130207)
(0.108699 -0.0107714 0.000493475)
(0.110655 -0.0126831 0.000281106)
(0.112253 -0.0122731 7.81402e-05)
(0.114987 -0.0129895 -0.000154862)