/*--------------------------------*- C++ -*----------------------------------*\
| =========                 |                                                 |
| \\      /  F ield         | OpenFOAM: The Open Source CFD Toolbox           |
|  \\    /   O peration     | Version:  4.1                                   |
|   \\  /    A nd           | Web:      www.OpenFOAM.org                      |
|    \\/     M anipulation  |                                                 |
\*---------------------------------------------------------------------------*/
FoamFile
{
    version     2.0;
    format      ascii;
    class       volScalarField;
    location    "1200";
    object      epsilon;
}
// * * * * * * * * * * * * * * * * * * * * * * * * * * * * * * * * * * * * * //

dimensions      [0 2 -3 0 0 0 0];

internalField   nonuniform List<scalar> 
12000
(
0.319574
0.311184
0.309985
0.309686
0.309612
0.309613
0.309688
0.30998
0.311108
0.319501
0.0652479
0.0639991
0.0630506
0.0626091
0.0624749
0.0624755
0.0626116
0.0630612
0.0640084
0.065275
0.0176809
0.01785
0.0174632
0.0172285
0.0171433
0.0171444
0.01723
0.0174664
0.017849
0.0176861
0.00616553
0.0064043
0.00626235
0.00615474
0.00610865
0.00610789
0.00615552
0.00626345
0.00640459
0.00617248
0.00263973
0.00279726
0.00274712
0.00269315
0.00266812
0.00266967
0.00269396
0.00274504
0.00279766
0.00264455
0.0013244
0.00141826
0.00140509
0.00138056
0.00136485
0.00136458
0.00138107
0.00140639
0.00141848
0.00132883
0.000750384
0.000810959
0.000810718
0.000795154
0.000786899
0.000784137
0.000795653
0.000809904
0.000812118
0.000754008
0.00046548
0.00050647
0.000508252
0.000499668
0.000493358
0.000494805
0.000500172
0.000508733
0.000507302
0.000468939
0.000309846
0.000338786
0.000342775
0.00033748
0.000332447
0.000332939
0.000338092
0.000343642
0.000339789
0.00031321
0.000217834
0.000239237
0.000244219
0.000240979
0.000237574
0.000238153
0.00024151
0.0002452
0.000239866
0.000221237
0.000160073
0.000176544
0.000182028
0.000179826
0.000177601
0.000177639
0.000180364
0.000182947
0.000177492
0.000163525
0.000121945
0.000135169
0.000140665
0.000139139
0.000137525
0.000137582
0.000139721
0.000141611
0.000136022
0.000125397
9.5672e-05
0.000106706
0.000111966
0.00011087
0.000109702
0.000109809
0.000111442
0.000112901
0.00010739
9.91069e-05
7.68973e-05
8.64443e-05
9.12678e-05
9.05191e-05
8.96784e-05
8.98469e-05
9.11313e-05
9.23288e-05
8.72787e-05
8.04207e-05
6.30343e-05
7.14817e-05
7.59299e-05
7.5428e-05
7.47883e-05
7.49925e-05
7.60761e-05
7.71432e-05
7.26299e-05
6.67833e-05
5.25012e-05
6.01592e-05
6.43071e-05
6.39807e-05
6.35485e-05
6.37776e-05
6.46924e-05
6.56513e-05
6.16438e-05
5.65712e-05
4.42837e-05
5.13753e-05
5.52724e-05
5.50981e-05
5.4788e-05
5.50488e-05
5.58748e-05
5.68192e-05
5.32785e-05
4.87965e-05
3.76983e-05
4.43991e-05
4.81214e-05
4.80868e-05
4.79224e-05
4.82498e-05
4.89823e-05
4.98645e-05
4.67369e-05
4.27292e-05
3.22847e-05
3.87627e-05
4.23271e-05
4.24238e-05
4.23724e-05
4.2731e-05
4.34533e-05
4.43802e-05
4.1634e-05
3.80069e-05
2.76967e-05
3.4051e-05
3.75399e-05
3.78187e-05
3.7914e-05
3.83494e-05
3.90204e-05
3.99131e-05
3.75253e-05
3.42047e-05
2.36862e-05
2.9995e-05
3.35052e-05
3.39605e-05
3.41376e-05
3.46135e-05
3.53498e-05
3.63401e-05
3.43333e-05
3.12703e-05
2.00435e-05
2.63728e-05
3.00246e-05
3.07327e-05
3.10655e-05
3.16716e-05
3.23678e-05
3.33499e-05
3.16997e-05
2.8847e-05
1.66092e-05
2.30128e-05
2.69235e-05
2.78917e-05
2.83026e-05
2.89788e-05
2.98369e-05
3.09881e-05
2.97505e-05
2.7096e-05
1.32089e-05
1.97269e-05
2.40637e-05
2.54353e-05
2.6074e-05
2.69038e-05
2.77375e-05
2.89332e-05
2.80577e-05
2.56324e-05
9.72565e-06
1.62482e-05
2.12646e-05
2.30778e-05
2.38387e-05
2.47803e-05
2.59121e-05
2.73917e-05
2.697e-05
2.48186e-05
5.91757e-06
1.24872e-05
1.83343e-05
2.08939e-05
2.20799e-05
2.31864e-05
2.42676e-05
2.5943e-05
2.59093e-05
2.41725e-05
2.36033e-06
8.17792e-06
1.50064e-05
1.82977e-05
1.98708e-05
2.12682e-05
2.28271e-05
2.49509e-05
2.54221e-05
2.41625e-05
1.39333e-06
4.37016e-06
1.0778e-05
1.55394e-05
1.79792e-05
1.9651e-05
2.10701e-05
2.3719e-05
2.49839e-05
2.4655e-05
2.2371e-06
3.78518e-06
5.88606e-06
9.56423e-06
1.43482e-05
1.73645e-05
1.95918e-05
2.25139e-05
2.49576e-05
2.49516e-05
4.41234e-06
6.42308e-06
6.95465e-06
7.535e-06
8.35366e-06
1.17159e-05
1.57356e-05
2.04021e-05
2.40527e-05
2.75723e-05
0.311182
0.649578
0.643751
0.643449
0.643391
0.643392
0.643449
0.643757
0.649804
0.31133
0.0639956
0.0905979
0.078711
0.0778191
0.0776963
0.0776832
0.0778063
0.0786477
0.0907021
0.064213
0.0178468
0.0357261
0.0313576
0.0308867
0.0308156
0.0307628
0.0308251
0.0312272
0.0358145
0.0179803
0.00640201
0.0154424
0.0141056
0.0137984
0.0137086
0.0136857
0.01367
0.0137148
0.0156949
0.00650266
0.00279505
0.00666038
0.00626881
0.00608141
0.00605564
0.00604325
0.00602552
0.00603379
0.00689919
0.00285094
0.00141661
0.00290922
0.00275928
0.00276899
0.00270698
0.0026369
0.00272596
0.00266637
0.00307634
0.00144644
0.000809469
0.00140113
0.00210492
0.00113944
0.00122959
0.00127634
0.00111966
0.00120466
0.00146385
0.000823463
0.000505101
0.000630705
0.00135216
0.000832734
0.000594747
0.00101827
0.000783702
0.000543455
0.000625451
0.000512903
0.0003375
0.000531963
0.000720357
0.000528533
0.000259877
0.000671683
0.000515455
0.00026173
0.000540573
0.000343354
0.000237983
0.00024608
0.00031587
0.000291585
0.000198612
0.0003673
0.000284647
0.000124638
0.000273918
0.000242484
0.000175303
0.000185169
0.000151413
0.000133236
0.000114352
0.00016618
0.000129838
6.54051e-05
0.000198626
0.000179476
0.000133915
0.00011319
7.64844e-05
6.73039e-05
5.60724e-05
8.26205e-05
6.55798e-05
3.7146e-05
0.000134715
0.000137604
0.000105416
6.51161e-05
4.054e-05
3.62829e-05
3.133e-05
4.38117e-05
3.51475e-05
2.29422e-05
8.01694e-05
0.000108772
8.5101e-05
4.16642e-05
2.32013e-05
2.13697e-05
1.90083e-05
2.49633e-05
2.0762e-05
1.54358e-05
4.74889e-05
8.85615e-05
7.0062e-05
2.95968e-05
1.46701e-05
1.39969e-05
1.23044e-05
1.56435e-05
1.37324e-05
1.1282e-05
3.14952e-05
7.38179e-05
5.86423e-05
2.29679e-05
1.03872e-05
1.01924e-05
8.93636e-06
1.08094e-05
1.00607e-05
8.89167e-06
2.26578e-05
6.27538e-05
4.97409e-05
1.90712e-05
8.00425e-06
8.0485e-06
7.02476e-06
8.18132e-06
8.05366e-06
7.38929e-06
1.75143e-05
5.41306e-05
4.26329e-05
1.66608e-05
6.71187e-06
6.75076e-06
5.91911e-06
6.69235e-06
6.87112e-06
6.42078e-06
1.41768e-05
4.74063e-05
3.68577e-05
1.52529e-05
6.03541e-06
5.92306e-06
5.22945e-06
5.7524e-06
6.11572e-06
5.75523e-06
1.20485e-05
4.19423e-05
3.20118e-05
1.43854e-05
5.48773e-06
5.38199e-06
4.82248e-06
5.16487e-06
5.57968e-06
5.28283e-06
1.04823e-05
3.76491e-05
2.78408e-05
1.39447e-05
5.49824e-06
5.03655e-06
4.53028e-06
4.76633e-06
5.22268e-06
4.95489e-06
9.39691e-06
3.4008e-05
2.41491e-05
1.39248e-05
5.53901e-06
4.82158e-06
4.37064e-06
4.52504e-06
4.95661e-06
4.74121e-06
8.54501e-06
3.12285e-05
2.08143e-05
1.41526e-05
5.58288e-06
4.76091e-06
4.30863e-06
4.36321e-06
4.79894e-06
4.60408e-06
7.88098e-06
2.86767e-05
1.76809e-05
1.48561e-05
6.25926e-06
4.83514e-06
4.32635e-06
4.35556e-06
4.7052e-06
4.60087e-06
7.33673e-06
2.68565e-05
1.45811e-05
1.52344e-05
7.33285e-06
5.00611e-06
4.45432e-06
4.40598e-06
4.73678e-06
4.62927e-06
7.02447e-06
2.50484e-05
1.14348e-05
1.59834e-05
9.07707e-06
5.58952e-06
4.71447e-06
4.59723e-06
4.83589e-06
4.94398e-06
6.69255e-06
2.36958e-05
8.18031e-06
1.74704e-05
1.15426e-05
6.4891e-06
5.20281e-06
4.96142e-06
5.18692e-06
5.17951e-06
6.83891e-06
2.22675e-05
5.13462e-06
1.9272e-05
1.46509e-05
8.43101e-06
6.10611e-06
5.57018e-06
5.65495e-06
6.15381e-06
6.95903e-06
2.11377e-05
3.78442e-06
2.32921e-05
2.00194e-05
1.15509e-05
7.87927e-06
6.72696e-06
6.71183e-06
6.97343e-06
9.98567e-06
1.98036e-05
4.00717e-06
2.52019e-05
2.7477e-05
1.94231e-05
1.133e-05
8.49644e-06
8.47099e-06
9.03154e-06
1.44827e-05
1.94384e-05
0.309983
0.643752
0.633486
0.633198
0.633129
0.633129
0.633201
0.633484
0.643858
0.310255
0.0630478
0.0787357
0.060188
0.0594703
0.0593566
0.0591944
0.0592819
0.0601263
0.0787351
0.0633122
0.0174592
0.0313861
0.0139909
0.0124894
0.0121478
0.0138297
0.0143036
0.0139149
0.0313811
0.0175905
0.0062615
0.0141223
0.00626454
0.00351066
0.00172836
0.00601575
0.00506078
0.005094
0.0141263
0.00634918
0.00274282
0.00617892
0.00238984
0.00114155
0.000207949
0.00232004
0.0047681
0.00443306
0.00632878
0.00279346
0.00140518
0.00303681
0.0023804
0.00152821
0.000210895
0.00203163
0.00329063
0.00235878
0.00282196
0.00142923
0.000810081
0.00237708
0.00180076
0.000700897
0.000138485
0.00134693
0.00263007
0.00150506
0.00130642
0.000820806
0.000507353
0.00155531
0.00148872
0.000409153
6.11444e-05
0.000649835
0.00135898
0.00111725
0.00053262
0.00051575
0.00034179
0.000823571
0.000935186
0.000201285
6.11017e-05
0.000521697
0.000697468
0.000695806
0.000452599
0.000347067
0.00024294
0.000357444
0.000572043
0.000121393
3.22748e-05
0.000384774
0.000420729
0.000368562
0.000319168
0.000247433
0.000180804
0.000170897
0.000384816
6.15726e-05
3.17817e-05
0.000312434
0.000204496
0.000155166
0.000178766
0.00018426
0.000139408
8.46325e-05
0.000226473
3.34038e-05
2.01752e-05
0.000216916
8.94565e-05
6.95114e-05
8.51221e-05
0.000142362
0.000110676
4.51518e-05
0.00012453
1.41394e-05
1.09237e-05
0.000163238
4.05955e-05
3.18047e-05
4.51001e-05
0.000113289
8.99677e-05
2.63342e-05
4.99427e-05
7.77297e-06
4.83803e-06
0.000117926
1.84969e-05
1.35087e-05
2.55137e-05
9.25138e-05
7.45225e-05
1.65928e-05
3.36884e-05
4.33404e-06
2.26154e-06
6.23492e-05
8.62157e-06
8.35252e-06
1.56514e-05
7.70512e-05
6.27726e-05
1.21434e-05
1.86529e-05
1.80877e-06
1.14246e-06
2.59665e-05
4.08852e-06
4.55691e-06
1.04482e-05
6.54586e-05
5.35424e-05
9.48986e-06
6.8664e-06
1.74713e-06
4.71633e-07
1.14363e-05
2.01231e-06
2.11413e-06
7.61473e-06
5.63355e-05
4.61528e-05
9.03241e-06
6.20732e-06
1.43096e-06
5.21474e-07
5.16252e-06
1.06648e-06
1.07324e-06
5.93334e-06
4.93325e-05
4.01116e-05
8.74621e-06
4.11819e-06
7.77762e-07
3.2505e-07
2.44649e-06
6.20068e-07
6.00236e-07
4.90504e-06
4.34837e-05
3.50465e-05
8.40375e-06
2.31999e-06
7.74456e-07
2.08188e-07
9.4219e-07
4.08585e-07
3.92689e-07
4.21433e-06
3.90453e-05
3.07095e-05
8.37003e-06
1.43834e-06
5.78291e-07
1.68094e-07
8.98819e-07
2.61416e-07
2.66293e-07
3.66132e-06
3.49864e-05
2.68938e-05
8.61357e-06
1.20509e-06
3.98675e-07
1.57184e-07
5.86204e-07
3.0899e-07
2.77554e-07
3.28062e-06
3.20876e-05
2.34651e-05
9.22636e-06
1.20613e-06
3.20327e-07
1.61644e-07
3.52475e-07
2.58546e-07
2.54633e-07
2.91025e-06
2.9037e-05
2.02996e-05
9.9049e-06
1.52056e-06
3.41367e-07
1.74797e-07
2.47324e-07
2.33897e-07
2.3779e-07
2.62032e-06
2.71023e-05
1.73343e-05
1.10397e-05
1.9224e-06
4.21851e-07
2.09515e-07
2.22795e-07
2.36309e-07
2.42375e-07
2.31659e-06
2.45306e-05
1.44931e-05
1.21856e-05
2.76248e-06
5.84382e-07
2.61578e-07
2.36082e-07
2.56872e-07
2.64683e-07
2.01597e-06
2.30384e-05
1.17336e-05
1.28863e-05
4.22222e-06
9.08163e-07
3.82143e-07
2.85252e-07
2.98897e-07
3.09462e-07
1.74493e-06
2.05085e-05
9.03194e-06
1.38451e-05
6.45991e-06
1.51953e-06
5.26492e-07
3.73603e-07
3.71305e-07
3.6808e-07
1.46141e-06
1.86971e-05
6.7045e-06
1.55067e-05
9.07353e-06
2.67015e-06
9.58457e-07
5.30079e-07
4.84103e-07
5.24256e-07
1.45159e-06
1.56401e-05
5.10581e-06
1.73894e-05
1.33028e-05
5.1111e-06
1.8526e-06
8.68482e-07
6.9808e-07
6.69618e-07
1.93751e-06
1.29593e-05
0.309684
0.643451
0.633199
0.632901
0.632827
0.632827
0.632922
0.6332
0.643551
0.309971
0.062606
0.0778299
0.0593751
0.0585858
0.0583878
0.0584354
0.0582822
0.0592748
0.077844
0.0628664
0.0172254
0.0309014
0.0134845
0.0124963
0.0130577
0.012426
0.0149244
0.0137568
0.0308747
0.017349
0.00615208
0.0137885
0.00325836
0.0018392
0.00232173
0.00242126
0.00425776
0.00585028
0.0138304
0.00623265
0.00269072
0.00610418
0.000687598
0.000591313
0.00104742
0.00118407
0.00187906
0.00215612
0.00612208
0.00273663
0.00137867
0.00273884
0.000648562
0.000614539
0.000174049
3.82031e-05
0.000633944
0.00183289
0.00279074
0.00140079
0.00079342
0.00125378
0.000442885
0.000114945
3.34639e-05
1.71196e-06
0.000768096
0.00119794
0.00113985
0.000805723
0.000497895
0.000597434
0.000356118
8.08097e-07
4.40143e-06
5.13887e-07
0.000436194
0.000585128
0.000835476
0.000506336
0.000335966
0.000270012
0.000193405
1.93438e-07
3.36937e-06
3.70792e-07
0.000205909
0.000431413
0.000527643
0.000341864
0.000239434
0.000179629
0.00013771
6.61767e-07
1.82516e-06
7.98689e-07
8.26647e-05
0.000276095
0.000290647
0.000244264
0.000178382
0.000105053
8.64738e-05
2.80648e-07
8.70623e-07
5.30297e-07
5.75794e-05
0.000146502
0.000132638
0.000182491
0.000137547
5.3516e-05
5.53018e-05
1.77288e-07
3.12651e-07
6.8202e-07
3.69652e-05
6.17132e-05
6.66094e-05
0.000141465
0.000109261
3.06797e-05
2.91963e-05
1.86292e-07
1.82606e-07
5.40807e-07
2.02866e-05
2.77392e-05
3.56278e-05
0.000112984
8.87836e-05
1.97341e-05
1.30946e-05
1.77182e-07
7.86634e-08
5.02415e-07
1.47114e-05
1.25309e-05
2.07119e-05
9.26036e-05
7.35028e-05
1.38669e-05
5.01973e-06
8.82997e-08
6.14636e-08
3.28484e-07
7.44712e-06
5.69369e-06
1.3162e-05
7.74052e-05
6.18828e-05
1.08966e-05
4.85437e-06
1.61047e-07
2.931e-08
2.03019e-07
4.00611e-06
2.62688e-06
9.12212e-06
6.59636e-05
5.27764e-05
9.32293e-06
3.32536e-06
1.02398e-07
3.32891e-08
8.99926e-08
1.46178e-06
1.22017e-06
6.80145e-06
5.69202e-05
4.54735e-05
8.24719e-06
1.87906e-06
8.36197e-08
2.61742e-08
6.35664e-08
7.40748e-07
6.04981e-07
5.4224e-06
4.99352e-05
3.95165e-05
8.18777e-06
1.05614e-06
6.01104e-08
2.3152e-08
4.23098e-08
3.16231e-07
2.78771e-07
4.5106e-06
4.41014e-05
3.45127e-05
7.99904e-06
7.98822e-07
4.68372e-08
1.8443e-08
2.30794e-08
1.43991e-07
2.22534e-07
3.90146e-06
3.96092e-05
3.02426e-05
8.02182e-06
7.30757e-07
4.42502e-08
1.6138e-08
2.13886e-08
5.39678e-08
1.4491e-07
3.40647e-06
3.55479e-05
2.64811e-05
8.21124e-06
8.44331e-07
5.71037e-08
9.84698e-09
1.7669e-08
4.81564e-08
9.0462e-08
3.04484e-06
3.25592e-05
2.31203e-05
8.74345e-06
9.95557e-07
7.79188e-08
1.29871e-08
1.52523e-08
2.45406e-08
6.34769e-08
2.66338e-06
2.94645e-05
2.00296e-05
9.37141e-06
1.3279e-06
1.21793e-07
1.29293e-08
8.68428e-09
1.97651e-08
5.02345e-08
2.36767e-06
2.74038e-05
1.71531e-05
1.02131e-05
1.68248e-06
1.99844e-07
2.74117e-08
1.01271e-08
1.14344e-08
4.02036e-08
1.99269e-06
2.47243e-05
1.44361e-05
1.1404e-05
2.26317e-06
3.08679e-07
3.7756e-08
9.38551e-09
1.28868e-08
3.41e-08
1.71981e-06
2.31307e-05
1.18426e-05
1.18643e-05
3.6048e-06
5.36185e-07
9.04392e-08
2.22197e-08
9.86697e-09
2.77466e-08
1.33361e-06
2.0407e-05
9.35152e-06
1.23963e-05
5.15117e-06
9.41524e-07
1.51202e-07
2.9829e-08
2.15314e-08
2.46231e-08
1.119e-06
1.85758e-05
7.06151e-06
1.32381e-05
6.92551e-06
1.65292e-06
3.3668e-07
8.53397e-08
2.55605e-08
3.56945e-08
7.70781e-07
1.51861e-05
5.00604e-06
1.40979e-05
9.11381e-06
2.62669e-06
6.64891e-07
1.67661e-07
6.58075e-08
4.23044e-08
7.91068e-07
1.2117e-05
0.309611
0.643395
0.633126
0.632824
0.63275
0.632756
0.632825
0.633125
0.643495
0.309899
0.0624712
0.0776943
0.0593495
0.058495
0.0583443
0.0582608
0.0584209
0.0592325
0.0777213
0.0627308
0.0171404
0.0307952
0.0122947
0.0119516
0.0119968
0.0127475
0.0125543
0.0128044
0.0307913
0.0172618
0.00610444
0.0137307
0.00241119
0.00265901
0.00284921
0.00251801
0.00237711
0.00394472
0.0137449
0.0061846
0.00266686
0.00605825
0.000449709
0.00131717
0.0011511
0.001239
0.000802475
0.0012461
0.00607217
0.00270995
0.00136171
0.00268132
0.000164062
2.49037e-05
0.000569991
1.04262e-05
0.000737183
0.00153942
0.00274207
0.00138458
0.000782352
0.00121003
0.000204668
1.86554e-05
4.78634e-06
1.60351e-10
3.21697e-06
0.000422838
0.00114015
0.000794909
0.000491326
0.000560544
0.000147154
1.68526e-07
7.43655e-10
1.59365e-11
2.62972e-07
0.000143783
0.000881914
0.000499964
0.000331331
0.000266218
0.000119584
2.5385e-07
4.83774e-10
7.70604e-12
1.81083e-07
5.59991e-05
0.000587879
0.000337102
0.000235894
0.000131171
7.38487e-05
1.79217e-07
1.18876e-09
1.58332e-11
3.30454e-07
3.62071e-05
0.000323749
0.000241005
0.000175993
6.87707e-05
3.9598e-05
1.8333e-07
4.26423e-10
1.97376e-11
1.0871e-07
1.96882e-05
0.0001471
0.000180064
0.000135776
3.91826e-05
1.68828e-05
1.02468e-07
2.97328e-10
5.46646e-11
9.17782e-08
1.06439e-05
7.32272e-05
0.000139692
0.000107764
2.43655e-05
8.19438e-06
2.07017e-07
2.87409e-10
8.50711e-11
7.8946e-08
4.14854e-06
3.86819e-05
0.000111528
8.75513e-05
1.68377e-05
3.17026e-06
1.70418e-07
8.34689e-11
9.66352e-11
6.83694e-08
2.96865e-06
2.21398e-05
9.13656e-05
7.25647e-05
1.28075e-05
3.27625e-06
1.5214e-07
2.77689e-09
6.44253e-11
5.26932e-08
1.65237e-06
1.40263e-05
7.63108e-05
6.11136e-05
1.06409e-05
1.78252e-06
7.80212e-08
1.4328e-09
6.43321e-11
3.20406e-08
7.60358e-07
9.84284e-06
6.50248e-05
5.22054e-05
9.34128e-06
1.30132e-06
8.93828e-08
2.94524e-09
7.20418e-11
1.26822e-08
3.82179e-07
7.52162e-06
5.61027e-05
4.50507e-05
8.75323e-06
8.78669e-07
5.43607e-08
3.35635e-09
1.4146e-10
1.33892e-08
2.11868e-07
6.16263e-06
4.92931e-05
3.92052e-05
8.07647e-06
6.46314e-07
4.30174e-08
2.06749e-09
1.27428e-10
7.38545e-09
1.31671e-07
5.18644e-06
4.3551e-05
3.42962e-05
8.40104e-06
6.06956e-07
3.42694e-08
2.1636e-09
1.26955e-10
3.20185e-09
9.93741e-08
4.57171e-06
3.92374e-05
3.00639e-05
8.33291e-06
6.27727e-07
3.57982e-08
1.22612e-09
1.90753e-10
2.06615e-09
8.10615e-08
4.0282e-06
3.52475e-05
2.63426e-05
8.28857e-06
7.68406e-07
4.68518e-08
4.01055e-09
1.54558e-10
1.22374e-09
6.83642e-08
3.59068e-06
3.24001e-05
2.30131e-05
8.55606e-06
9.1748e-07
6.6986e-08
3.80564e-09
3.74251e-10
7.22192e-10
5.92866e-08
3.1026e-06
2.93065e-05
1.99452e-05
9.09642e-06
1.23201e-06
1.06029e-07
1.23422e-08
4.10202e-10
4.91382e-10
4.88293e-08
2.70034e-06
2.73087e-05
1.70731e-05
9.836e-06
1.56208e-06
1.77667e-07
1.53673e-08
2.46653e-09
7.48742e-10
4.10267e-08
2.2217e-06
2.45848e-05
1.43567e-05
1.11194e-05
2.1784e-06
2.79417e-07
4.42266e-08
3.28873e-09
2.04072e-10
3.2193e-08
1.86615e-06
2.29667e-05
1.17351e-05
1.16253e-05
3.36774e-06
4.95454e-07
6.30425e-08
1.29347e-08
2.54258e-09
2.54267e-08
1.41264e-06
2.02549e-05
9.20297e-06
1.23167e-05
5.04791e-06
8.9742e-07
1.64394e-07
2.0916e-08
4.02909e-10
1.56339e-08
1.15042e-06
1.81485e-05
6.82413e-06
1.31449e-05
6.85028e-06
1.57252e-06
2.92624e-07
6.77989e-08
1.82495e-08
1.69344e-08
7.65785e-07
1.48875e-05
4.63108e-06
1.41006e-05
9.05293e-06
2.61285e-06
6.46868e-07
1.50124e-07
3.56113e-08
2.04308e-08
7.53307e-07
1.14334e-05
0.309611
0.643395
0.633126
0.63283
0.632775
0.63275
0.632825
0.633125
0.643495
0.309898
0.0624714
0.0776898
0.0592006
0.058372
0.0581641
0.0583458
0.0584225
0.0592748
0.0777157
0.0627303
0.0171403
0.0307694
0.0137834
0.013176
0.0133914
0.011884
0.0124837
0.0123022
0.0307649
0.0172611
0.00610466
0.013718
0.00599812
0.00259655
0.00365596
0.00286794
0.002394
0.00230424
0.0136973
0.00618378
0.00266655
0.00604343
0.00231425
0.000398041
0.00186298
0.00143849
0.00116378
0.000342435
0.00603329
0.00270957
0.00136192
0.00267082
0.0020388
0.000204567
2.85862e-05
2.35871e-05
2.24387e-05
0.000137723
0.00268264
0.0013843
0.000782241
0.00121045
0.00139291
7.56387e-05
3.59809e-10
3.70403e-10
3.63539e-06
9.92084e-05
0.00122356
0.000794925
0.000491463
0.000871912
0.00109247
4.01044e-05
7.7948e-11
4.23685e-11
2.82791e-06
6.25471e-05
0.000565042
0.000499855
0.000331211
0.00053412
0.000617144
2.61692e-05
7.95269e-11
1.12216e-10
2.13524e-06
4.51557e-05
0.000271905
0.000337121
0.000236183
0.000293241
0.000331916
1.24122e-05
9.16294e-11
1.32345e-10
1.58957e-06
3.35396e-05
0.0001349
0.000240877
0.000175958
0.000132295
0.000123557
6.08487e-06
6.2533e-10
1.24449e-09
1.16093e-06
1.77136e-05
6.99405e-05
0.000180044
0.000135782
6.60072e-05
9.42078e-05
5.89038e-06
1.87812e-09
1.54674e-09
7.63183e-07
7.56094e-06
3.85972e-05
0.000139742
0.000107764
3.48731e-05
6.17259e-05
3.52566e-06
6.66594e-09
1.84121e-08
5.74771e-07
3.4538e-06
2.30741e-05
0.000111596
8.76429e-05
2.04422e-05
3.4814e-05
2.54572e-06
7.32793e-09
8.16593e-09
4.21021e-07
1.61247e-06
1.50835e-05
9.14158e-05
7.26227e-05
1.35568e-05
1.5896e-05
1.47989e-06
1.58348e-08
6.371e-09
3.1121e-07
7.80567e-07
1.07829e-05
7.63376e-05
6.11678e-05
1.01116e-05
7.34232e-06
1.03225e-06
1.26845e-08
4.81277e-09
2.23873e-07
4.02344e-07
8.3246e-06
6.50337e-05
5.21791e-05
8.34775e-06
2.94117e-06
6.77173e-07
1.35821e-08
3.38347e-09
1.62491e-07
2.27752e-07
6.77954e-06
5.61011e-05
4.49885e-05
7.21537e-06
2.5491e-06
4.75334e-07
9.57497e-09
9.46566e-10
8.54713e-08
1.46813e-07
5.76678e-06
4.92807e-05
3.91133e-05
7.29936e-06
1.76664e-06
2.87847e-07
8.59692e-09
1.19755e-09
3.50548e-08
1.08874e-07
5.01253e-06
4.35304e-05
3.41854e-05
7.09348e-06
1.09109e-06
1.53402e-07
4.32295e-09
8.88484e-10
1.58489e-08
8.87091e-08
4.45517e-06
3.92086e-05
2.99753e-05
7.24472e-06
7.66642e-07
8.61635e-08
9.30674e-09
4.70918e-10
5.78086e-09
7.76858e-08
3.93076e-06
3.51976e-05
2.62729e-05
7.54912e-06
7.66019e-07
6.52406e-08
6.02823e-09
4.74184e-10
5.40837e-09
6.98926e-08
3.50096e-06
3.23468e-05
2.29663e-05
8.18415e-06
8.81415e-07
6.97192e-08
7.30296e-09
7.00934e-10
4.1921e-09
6.10475e-08
3.02619e-06
2.92521e-05
1.99235e-05
8.9348e-06
1.2003e-06
1.05836e-07
8.26641e-09
3.18282e-10
3.39304e-09
5.23622e-08
2.63626e-06
2.72589e-05
1.70764e-05
9.82085e-06
1.56706e-06
1.7554e-07
1.80518e-08
2.00315e-09
2.21729e-09
4.28242e-08
2.17263e-06
2.45385e-05
1.43775e-05
1.11666e-05
2.13654e-06
2.84079e-07
3.10036e-08
2.54379e-09
2.10971e-09
3.32225e-08
1.82789e-06
2.29468e-05
1.17615e-05
1.16877e-05
3.42514e-06
5.14247e-07
7.46097e-08
1.2518e-08
2.86285e-09
2.48816e-08
1.38118e-06
2.01181e-05
9.22599e-06
1.23525e-05
5.06695e-06
9.27051e-07
1.44191e-07
2.07355e-08
2.53567e-09
1.58539e-08
1.13521e-06
1.84267e-05
6.83326e-06
1.31533e-05
6.81666e-06
1.53206e-06
3.04349e-07
6.90349e-08
1.79005e-08
1.76102e-08
7.23753e-07
1.44231e-05
4.63197e-06
1.40877e-05
9.01916e-06
2.62904e-06
6.19243e-07
1.48284e-07
3.56438e-08
2.22574e-08
7.8844e-07
1.24082e-05
0.309686
0.643451
0.633196
0.632899
0.632827
0.632826
0.632923
0.6332
0.643553
0.309971
0.0626072
0.0778185
0.0594347
0.0585958
0.0584682
0.0584116
0.0582573
0.0592588
0.0778012
0.062865
0.0172254
0.0308374
0.0127453
0.0122987
0.0121135
0.0125628
0.0150431
0.0138274
0.0306171
0.0173469
0.00615237
0.0136656
0.00424166
0.00224614
0.00252618
0.00232408
0.00408201
0.00225399
0.0139225
0.00622937
0.00268997
0.00603151
0.00475585
0.00104993
0.00122164
0.000913871
0.00136548
0.00032369
0.005646
0.00273666
0.00137887
0.00269961
0.00282975
0.0001281
6.01954e-05
0.000459813
0.00138419
0.000121955
0.00417325
0.00140056
0.000793597
0.00124132
0.00230048
1.00355e-05
1.86156e-05
0.000278125
8.23342e-05
0.000198158
0.00307788
0.000807835
0.000497902
0.000568393
0.000924601
2.99762e-06
2.15743e-05
0.000216665
2.27432e-05
7.02535e-05
0.0020131
0.000506491
0.000335974
0.000269267
0.000480888
8.17774e-07
1.03121e-05
0.000114744
1.24739e-05
3.39274e-05
0.00107527
0.000341837
0.000239448
0.000132674
0.000173891
6.67796e-07
6.17525e-06
5.53826e-05
7.73929e-06
2.08532e-05
0.000464018
0.000244485
0.000178329
6.92936e-05
0.000144065
6.99701e-07
4.07896e-06
4.3616e-05
4.16622e-06
1.03065e-05
0.00021558
0.000182833
0.00013755
3.89374e-05
9.6158e-05
5.81339e-07
2.23158e-06
2.61386e-05
1.81685e-06
4.58365e-06
0.000103182
0.000141747
0.000109251
2.44081e-05
5.19234e-05
6.15955e-07
7.72372e-07
1.97733e-05
9.37273e-07
2.10421e-06
5.15746e-05
0.000113198
8.87821e-05
1.7141e-05
1.87112e-05
7.78279e-07
6.30797e-07
1.39853e-05
3.6022e-07
9.93372e-07
2.74535e-05
9.27288e-05
7.35312e-05
1.30112e-05
1.62656e-05
5.7475e-07
3.12487e-07
6.82072e-06
4.16953e-07
4.95166e-07
1.59638e-05
7.74339e-05
6.19091e-05
1.08507e-05
8.96578e-06
5.33314e-07
1.18245e-07
5.05209e-06
2.40269e-07
2.65906e-07
1.0365e-05
6.59551e-05
5.27932e-05
9.61457e-06
4.60513e-06
3.11319e-07
4.7738e-08
2.66043e-06
1.492e-07
1.59383e-07
7.48227e-06
5.68873e-05
4.55029e-05
8.84787e-06
2.43272e-06
1.55741e-07
2.55077e-08
1.13604e-06
9.2109e-08
1.0985e-07
5.91306e-06
4.99524e-05
3.95497e-05
8.72022e-06
1.32147e-06
1.00601e-07
1.67971e-08
4.35016e-07
5.24621e-08
8.59527e-08
4.93466e-06
4.41062e-05
3.45669e-05
8.62663e-06
9.3488e-07
6.78018e-08
9.32991e-09
3.46258e-07
3.19957e-08
7.48389e-08
4.30768e-06
3.96914e-05
3.03064e-05
8.70258e-06
8.22284e-07
5.70767e-08
1.03422e-08
1.63128e-07
2.58597e-08
6.73957e-08
3.78506e-06
3.56252e-05
2.65696e-05
8.9468e-06
9.43788e-07
6.60315e-08
6.017e-09
1.43541e-07
1.84357e-08
6.20849e-08
3.37631e-06
3.26966e-05
2.32249e-05
9.42628e-06
1.09881e-06
8.54287e-08
9.46991e-09
6.63549e-08
1.61123e-08
5.5481e-08
2.92951e-06
2.95894e-05
2.01564e-05
1.00203e-05
1.46657e-06
1.37203e-07
1.3968e-08
6.13302e-08
1.24426e-08
4.95793e-08
2.56694e-06
2.75054e-05
1.72781e-05
1.07768e-05
1.81513e-06
2.16071e-07
2.32717e-08
3.13312e-08
1.24353e-08
4.16869e-08
2.1285e-06
2.48468e-05
1.45697e-05
1.18415e-05
2.47117e-06
3.41662e-07
4.9062e-08
2.91333e-08
9.70016e-09
3.51884e-08
1.8006e-06
2.31254e-05
1.19534e-05
1.21271e-05
3.76919e-06
5.7087e-07
8.17043e-08
2.32386e-08
1.22935e-08
2.75762e-08
1.37903e-06
2.04216e-05
9.47405e-06
1.2714e-05
5.42043e-06
1.03735e-06
1.7761e-07
4.94469e-08
1.36222e-08
2.67085e-08
1.12793e-06
1.86267e-05
7.15287e-06
1.33753e-05
7.09554e-06
1.68356e-06
3.40721e-07
7.20347e-08
2.9639e-08
2.70924e-08
7.70244e-07
1.50159e-05
5.09423e-06
1.43239e-05
9.34033e-06
2.76343e-06
6.87767e-07
1.99496e-07
5.37243e-08
4.4464e-08
7.96421e-07
1.16133e-05
0.309978
0.643757
0.633483
0.633199
0.633127
0.633126
0.633216
0.633483
0.643855
0.310258
0.0630567
0.0786575
0.0601368
0.0592916
0.0591573
0.0591511
0.0590664
0.0601506
0.0786692
0.0633138
0.0174618
0.0312061
0.0137986
0.0136158
0.013574
0.0135018
0.0153789
0.0129798
0.0312073
0.017586
0.00625997
0.0138073
0.00474244
0.00226463
0.00246212
0.00575406
0.00396665
0.00471421
0.0137425
0.00634143
0.00274129
0.00578588
0.0049685
0.000217887
0.000471403
0.0020052
0.00174855
0.0015956
0.00604121
0.0027864
0.00140327
0.0033329
0.00364253
0.000190044
0.000367919
0.00200016
0.000601439
0.00161536
0.00268129
0.00142481
0.000808624
0.00252279
0.00276125
8.65038e-05
0.000246535
0.00138882
0.000592311
0.000569968
0.00123627
0.000818332
0.000506171
0.00158873
0.00141599
3.74163e-05
0.000160042
0.00112986
0.000361838
0.000218925
0.000566406
0.000514302
0.000340752
0.000860705
0.000746526
2.8105e-05
0.000104614
0.000774966
0.000172245
9.42462e-05
0.000278929
0.000346425
0.000242813
0.000380658
0.000450874
1.47627e-05
5.52721e-05
0.000400504
0.000141016
4.66285e-05
0.000135328
0.000247218
0.000180736
0.000177918
0.000210685
8.39866e-06
2.35153e-05
0.000203916
0.000100622
2.45947e-05
7.01608e-05
0.000184402
0.000139565
8.7528e-05
0.000154856
4.91974e-06
1.06469e-05
0.000104391
5.34487e-05
1.06537e-05
3.87447e-05
0.000142548
0.000110791
4.59406e-05
0.000103171
2.0935e-06
4.91267e-06
4.53565e-05
2.26867e-05
5.04048e-06
2.2749e-05
0.00011342
8.99708e-05
2.58751e-05
5.48953e-05
2.50043e-06
2.23924e-06
2.01878e-05
1.03175e-05
2.23245e-06
1.44189e-05
9.25192e-05
7.45723e-05
1.63899e-05
2.30845e-05
1.99459e-06
1.25292e-06
9.08247e-06
4.7669e-06
1.54127e-06
9.93901e-06
7.70063e-05
6.27818e-05
1.18604e-05
1.08583e-05
1.42968e-06
1.15414e-06
4.0877e-06
2.25846e-06
1.34708e-06
7.44411e-06
6.53729e-05
5.35385e-05
9.1261e-06
4.29773e-06
1.26652e-06
9.21494e-07
1.97486e-06
1.12148e-06
1.02481e-06
5.97163e-06
5.62462e-05
4.6143e-05
8.83353e-06
3.88941e-06
9.53723e-07
6.10922e-07
8.19264e-07
6.07124e-07
5.66369e-07
5.04765e-06
4.92535e-05
4.01022e-05
8.23282e-06
2.28757e-06
7.14296e-07
3.79325e-07
7.92692e-07
3.61327e-07
4.97976e-07
4.39869e-06
4.34214e-05
3.50365e-05
7.95853e-06
1.30365e-06
4.68331e-07
2.7018e-07
5.43337e-07
2.91448e-07
3.87269e-07
3.93388e-06
3.89757e-05
3.07136e-05
8.09456e-06
9.84209e-07
3.37981e-07
2.28564e-07
3.6924e-07
2.94982e-07
2.75486e-07
3.53494e-06
3.49431e-05
2.68962e-05
8.36041e-06
9.88509e-07
2.93932e-07
2.17118e-07
2.67771e-07
2.56703e-07
2.13662e-07
3.20353e-06
3.20182e-05
2.34827e-05
9.04725e-06
1.10846e-06
2.92635e-07
2.20718e-07
2.19767e-07
2.20971e-07
1.94985e-07
2.87726e-06
2.89809e-05
2.03205e-05
9.71312e-06
1.46089e-06
3.33798e-07
2.4207e-07
2.12063e-07
2.07559e-07
1.94587e-07
2.56054e-06
2.69729e-05
1.73566e-05
1.08063e-05
1.85019e-06
4.27558e-07
2.65216e-07
2.26327e-07
2.15633e-07
2.04919e-07
2.2516e-06
2.4399e-05
1.45275e-05
1.20253e-05
2.65093e-06
5.65821e-07
3.36565e-07
2.59305e-07
2.35264e-07
2.25952e-07
1.91972e-06
2.2854e-05
1.17864e-05
1.27333e-05
4.08437e-06
9.10732e-07
4.04465e-07
3.15524e-07
2.82311e-07
2.64653e-07
1.66197e-06
2.02768e-05
9.13207e-06
1.377e-05
6.31025e-06
1.42745e-06
6.28811e-07
4.17106e-07
3.47316e-07
3.18968e-07
1.35221e-06
1.86405e-05
6.82097e-06
1.53801e-05
8.92159e-06
2.64103e-06
9.02088e-07
5.55772e-07
4.64044e-07
4.5238e-07
1.34067e-06
1.52474e-05
5.217e-06
1.73058e-05
1.31138e-05
4.79312e-06
1.86019e-06
9.33196e-07
6.72611e-07
6.09095e-07
1.70966e-06
1.27882e-05
0.311106
0.649806
0.643857
0.643553
0.643495
0.643496
0.643555
0.643858
0.649885
0.311371
0.0640043
0.0907078
0.0787504
0.0778516
0.0777322
0.0777211
0.0778052
0.0786813
0.0907583
0.0642538
0.0178446
0.0358382
0.0314086
0.0308961
0.0308164
0.0307592
0.030695
0.0312193
0.0358771
0.0180016
0.00640221
0.0156811
0.0141285
0.0137981
0.0137314
0.0137265
0.0137517
0.0137409
0.0159299
0.00651655
0.00279187
0.00691262
0.00630843
0.00610507
0.00606123
0.00608314
0.00616529
0.00605021
0.00713309
0.00285962
0.00141821
0.00308366
0.00292464
0.00273778
0.00275042
0.0027051
0.00281609
0.0026768
0.00324045
0.00145085
0.000807262
0.00143503
0.00118587
0.00123237
0.00112577
0.00112691
0.00113141
0.00121343
0.00155058
0.000825074
0.000504216
0.000623684
0.000982843
0.000577805
0.000819858
0.000804676
0.000921719
0.000546064
0.000664319
0.000513645
0.000336868
0.00056844
0.000675788
0.00027228
0.000518332
0.000493752
0.000631544
0.000265696
0.00057604
0.000343385
0.000237441
0.00028632
0.000369068
0.000147791
0.000285616
0.000271917
0.000346246
0.000129127
0.000293605
0.000242516
0.000174912
0.00020985
0.000167436
8.1932e-05
0.000130225
0.000125159
0.000157694
6.62983e-05
0.000217746
0.000179228
0.000133831
0.000123764
8.35809e-05
4.51285e-05
6.54767e-05
6.36763e-05
7.94365e-05
3.74155e-05
0.000152181
0.000137633
0.000105373
6.64106e-05
4.3919e-05
2.67588e-05
3.52542e-05
3.49969e-05
4.20259e-05
2.25966e-05