/*--------------------------------*- C++ -*----------------------------------*\
| =========                 |                                                 |
| \\      /  F ield         | OpenFOAM: The Open Source CFD Toolbox           |
|  \\    /   O peration     | Version:  4.1                                   |
|   \\  /    A nd           | Web:      www.OpenFOAM.org                      |
|    \\/     M anipulation  |                                                 |
\*---------------------------------------------------------------------------*/
FoamFile
{
    version     2.0;
    format      ascii;
    class       volScalarField;
    location    "1200";
    object      k;
}
// * * * * * * * * * * * * * * * * * * * * * * * * * * * * * * * * * * * * * //

dimensions      [0 2 -2 0 0 0 0];

internalField   nonuniform List<scalar> 
12000
(
0.116579
0.114032
0.11372
0.113646
0.113628
0.113628
0.113646
0.113722
0.114055
0.116604
0.0404541
0.0396848
0.0394057
0.0392261
0.0391703
0.0391705
0.0392259
0.0394015
0.0396828
0.0404511
0.0169175
0.0167494
0.0166621
0.0165241
0.0164697
0.0164681
0.0165242
0.0166611
0.0167506
0.0169211
0.00837726
0.00835884
0.00831261
0.00821312
0.00817336
0.00818029
0.00821535
0.00830953
0.0083552
0.00837534
0.00476373
0.00479122
0.00476437
0.00472042
0.00468916
0.0046814
0.00472227
0.00478102
0.00478857
0.00476191
0.00301855
0.00308302
0.00307045
0.0030215
0.00300205
0.00300866
0.00302479
0.00306592
0.00307835
0.00301664
0.002065
0.00210674
0.002129
0.00210872
0.00208824
0.00209802
0.00211046
0.00213676
0.00210872
0.0020688
0.00150485
0.00155006
0.00157441
0.00155815
0.00154004
0.00154493
0.00156141
0.0015796
0.00154213
0.00150797
0.00114362
0.00115255
0.00121681
0.00120616
0.00118849
0.00119422
0.00120734
0.00122071
0.001173
0.0011513
0.000905574
0.000934796
0.000974044
0.000966563
0.000954167
0.000957312
0.000966991
0.000977791
0.000945653
0.000913679
0.000738084
0.000776394
0.000801688
0.000796034
0.000787461
0.000789382
0.000796746
0.00080562
0.000781161
0.000747389
0.00061579
0.000655959
0.000675693
0.000671091
0.00066597
0.000666328
0.000672334
0.000679625
0.000658713
0.000626535
0.000523707
0.000562628
0.00058083
0.000576905
0.000572144
0.00057346
0.000578644
0.000584565
0.00056517
0.000535862
0.000452555
0.000489667
0.000507069
0.000504006
0.000500486
0.000501668
0.000506058
0.000511196
0.000492902
0.000466206
0.000396237
0.000431598
0.000448593
0.000446331
0.000443881
0.000444769
0.000448741
0.000453415
0.000436217
0.000411766
0.000350636
0.000384628
0.00040145
0.000399904
0.000398033
0.000399197
0.000402803
0.000407074
0.000390829
0.000368471
0.000312913
0.000346002
0.000362846
0.000361923
0.000360605
0.000361828
0.000365284
0.000369559
0.000354346
0.000333745
0.000280986
0.00031376
0.000330658
0.000330466
0.000329771
0.000331272
0.000334511
0.000338633
0.000324476
0.000305369
0.000253327
0.000286347
0.000303442
0.00030394
0.000303739
0.000305399
0.000308779
0.000313202
0.000300233
0.000282362
0.000228674
0.000262462
0.000280111
0.000281449
0.000281957
0.000284079
0.000287355
0.000291766
0.000280007
0.000263158
0.00020601
0.000241145
0.000259639
0.000261942
0.000262882
0.000265264
0.000269002
0.00027404
0.00026381
0.000247844
0.000184296
0.000221211
0.000241277
0.000245018
0.000246807
0.000249965
0.000253618
0.000258765
0.000250053
0.000234841
0.000162584
0.000201845
0.00022436
0.000229679
0.000231924
0.00023557
0.000240179
0.000246368
0.000239679
0.000225216
0.000139563
0.000182064
0.000208085
0.000215917
0.000219547
0.000224168
0.000228767
0.000235336
0.000230478
0.000216973
0.000113838
0.000159896
0.000191565
0.000202376
0.000206783
0.000212187
0.000218572
0.000226881
0.000224455
0.000212365
8.18959e-05
0.00013412
0.00017334
0.000189271
0.000196469
0.000202967
0.000209243
0.000218769
0.000218556
0.000208542
4.44096e-05
0.000101085
0.000151571
0.000173294
0.00018294
0.000191593
0.000200762
0.000213196
0.00021573
0.000209071
3.12039e-05
6.65738e-05
0.00012134
0.000154611
0.000171653
0.00018157
0.00019057
0.000205797
0.000213396
0.000210354
4.29426e-05
6.08506e-05
8.1087e-05
0.000112686
0.000145874
0.000168001
0.000180297
0.000199816
0.000212855
0.000216044
6.76149e-05
8.65519e-05
9.23685e-05
9.26089e-05
0.000106935
0.000126725
0.000157811
0.000184052
0.000209502
0.00022552
0.114032
0.0225998
0.0202675
0.0202534
0.0202545
0.0202545
0.0202534
0.0202674
0.0225934
0.114002
0.0396838
0.00208727
0.00116456
0.00115267
0.00115247
0.00115233
0.00115281
0.00116483
0.00208264
0.0395827
0.0167482
0.000755398
0.000296087
0.000287576
0.000287629
0.000288938
0.00028783
0.000295758
0.00074922
0.0166629
0.00835605
0.000419961
0.000169939
0.000169783
0.000170149
0.000166392
0.000169917
0.000174092
0.000416491
0.0082611
0.00479014
0.000282501
0.000111732
0.000101269
0.000101784
0.000110246
0.000101683
0.00010466
0.000269934
0.00471533
0.00308022
0.00015709
7.21964e-05
8.79482e-05
8.78168e-05
7.24081e-05
8.6503e-05
8.65922e-05
0.000148426
0.00303064
0.00210374
0.000173996
5.80031e-05
6.87801e-05
7.70086e-05
5.48957e-05
6.9347e-05
6.40652e-05
0.000173431
0.00208803
0.00154708
0.000203446
4.44378e-05
4.3905e-05
5.86237e-05
4.4677e-05
4.11264e-05
5.12456e-05
0.000221493
0.00152685
0.00114944
0.000197015
3.66782e-05
3.04035e-05
8.50554e-05
3.57368e-05
3.29333e-05
3.87346e-05
0.000169369
0.00116117
0.000931532
0.00027619
3.45401e-05
2.46759e-05
5.44551e-05
2.90762e-05
2.85409e-05
4.47869e-05
0.000154795
0.000935941
0.000772794
0.000255157
2.00134e-05
1.57389e-05
5.20521e-05
1.85745e-05
1.76557e-05
6.09847e-05
0.000136404
0.000776441
0.000652011
0.00021837
3.72573e-05
2.93151e-05
5.87926e-05
2.56245e-05
3.4158e-05
7.16992e-05
0.000132251
0.000657267
0.000558166
0.000196449
4.52275e-05
4.19098e-05
3.99163e-05
3.87964e-05
4.43023e-05
7.4991e-05
0.000141048
0.000565841
0.000484656
0.000183702
5.29206e-05
5.14116e-05
5.58101e-05
4.71823e-05
5.4388e-05
7.20982e-05
0.000154015
0.00049516
0.000425941
0.000168536
5.62082e-05
5.63285e-05
5.60875e-05
5.23117e-05
5.99143e-05
6.78405e-05
0.000149517
0.000439445
0.000378207
0.000156892
5.88182e-05
5.86362e-05
5.2186e-05
5.42889e-05
6.11507e-05
6.41296e-05
0.000138191
0.000394742
0.000338698
0.000146997
5.74166e-05
5.85634e-05
5.30686e-05
5.47099e-05
6.08354e-05
6.10468e-05
0.000126667
0.000357916
0.000305459
0.0001433
5.7912e-05
5.72034e-05
5.15196e-05
5.42906e-05
6.02634e-05
5.88576e-05
0.000115341
0.000327679
0.000276951
0.000141276
5.79566e-05
5.60419e-05
5.12146e-05
5.32474e-05
5.90518e-05
5.73593e-05
0.000107388
0.000301951
0.00025192
0.000140341
6.08664e-05
5.51532e-05
5.10404e-05
5.27011e-05
5.80976e-05
5.61821e-05
0.000100625
0.000280856
0.000229512
0.000143508
6.08851e-05
5.57623e-05
5.11172e-05
5.22674e-05
5.75843e-05
5.58466e-05
9.59718e-05
0.000262237
0.000208622
0.000145229
6.1852e-05
5.5815e-05
5.11276e-05
5.22234e-05
5.7374e-05
5.58454e-05
9.22799e-05
0.000247503
0.000188787
0.00015368
6.63094e-05
5.66667e-05
5.17275e-05
5.25427e-05
5.74871e-05
5.62858e-05
8.90342e-05
0.000233669
0.000169221
0.000160817
7.82621e-05
5.94329e-05
5.38186e-05
5.36883e-05
5.79172e-05
5.73325e-05
8.65864e-05
0.000223283
0.000148748
0.000166853
9.1748e-05
6.33206e-05
5.60136e-05
5.54697e-05
5.90645e-05
5.92667e-05
8.52745e-05
0.000212892
0.000126404
0.00017748
0.000117003
7.25044e-05
6.10721e-05
5.91084e-05
6.14084e-05
6.17688e-05
8.2982e-05
0.000205617
0.000101095
0.000191606
0.000140586
8.39122e-05
6.67832e-05
6.37025e-05
6.52376e-05
6.62672e-05
8.47962e-05
0.000195631
7.39847e-05
0.000209777
0.000177343
0.000109943
7.86744e-05
7.12332e-05
7.14991e-05
7.27133e-05
8.72821e-05
0.00019286
6.06634e-05
0.000239447
0.000219082
0.000144031
9.84315e-05
8.34847e-05
8.20868e-05
8.36398e-05
0.000109713
0.000178866
6.30454e-05
0.000259854
0.000277085
0.000219633
0.000138337
0.00010316
0.000100091
0.00010244
0.000135803
0.000190723
0.11372
0.020268
0.0180016
0.0179928
0.0179925
0.0179923
0.0179927
0.0180016
0.0202632
0.113656
0.0394046
0.00116535
0.000458478
0.000451659
0.000449946
0.000451686
0.000452843
0.000458555
0.0011626
0.0392761
0.0166629
0.000294962
2.02638e-05
1.80833e-05
1.74032e-05
1.96307e-05
1.98196e-05
2.0017e-05
0.000294432
0.0165681
0.00830162
0.000174765
1.93454e-06
4.12189e-07
6.15489e-07
1.85217e-06
1.83272e-06
2.44786e-06
0.00017015
0.00822363
0.00477564
0.000102423
1.43585e-06
1.97325e-07
8.35271e-08
7.49832e-07
8.13042e-07
1.27324e-06
0.000106549
0.00470748
0.00305806
9.07303e-05
1.3345e-06
3.49633e-07
2.40149e-07
5.8337e-07
5.35154e-07
9.28091e-07
7.796e-05
0.00302575
0.00211688
6.96852e-05
1.47988e-06
2.62241e-07
4.15076e-07
4.29193e-07
8.70089e-07
8.18795e-07
5.2084e-05
0.00211709
0.00156694
5.14682e-05
1.69004e-06
2.60893e-07
4.49449e-07
5.98847e-07
5.76298e-07
7.84383e-07
5.1428e-05
0.00156876
0.00121174
4.09164e-05
1.23859e-06
2.2752e-07
8.80982e-07
5.57781e-07
4.83973e-07
7.12845e-07
4.00693e-05
0.00121023
0.000970039
3.59232e-05
9.93235e-07
2.00688e-07
6.90488e-07
5.35608e-07
3.84679e-07
5.52781e-07
3.11257e-05
0.000971222
0.000797378
2.38805e-05
7.80497e-07
1.89967e-07
4.43944e-07
5.15926e-07
3.02941e-07
5.16919e-07
1.46695e-05
0.000801751
0.000672252
3.68988e-05
6.0786e-07
1.83794e-07
2.41099e-07
4.4484e-07
2.64273e-07
4.11039e-07
3.21588e-05
0.00067747
0.000575745
2.57398e-05
4.53533e-07
1.80669e-07
2.07992e-07
3.94191e-07
1.94251e-07
3.31843e-07
4.86143e-05
0.000583341
0.000501814
5.44984e-05
4.55766e-07
1.86842e-07
2.61589e-07
3.28932e-07
1.84107e-07
3.49992e-07
5.54251e-05
0.00051065
0.000442847
5.14655e-05
4.17698e-07
2.45371e-07
2.5787e-07
2.90829e-07
1.92611e-07
3.35153e-07
5.58626e-05
0.000452679
0.000394756
5.64842e-05
4.50267e-07
4.3683e-07
3.99149e-07
2.1935e-07
2.37552e-07
3.31455e-07
5.2724e-05
0.000406335
0.0003551
6.08721e-05
6.96496e-07
4.92491e-07
7.10342e-07
2.40328e-07
3.34626e-07
3.81524e-07
4.95201e-05
0.000367749
0.000321599
6.45575e-05
9.31747e-07
6.1948e-07
6.19962e-07
2.47295e-07
5.23233e-07
3.87937e-07
4.59353e-05
0.000336576
0.00029281
7.03309e-05
7.18735e-07
1.10668e-06
8.20302e-07
2.97913e-07
9.39492e-07
8.93627e-07
4.32612e-05
0.000309287
0.000267551
7.72407e-05
2.96385e-06
1.01041e-06
1.1387e-06
6.80144e-07
1.36093e-06
1.46423e-06
4.0991e-05
0.00028774
0.00024493
8.51323e-05
5.67357e-06
1.2549e-06
1.39992e-06
9.35648e-07
1.81611e-06
1.96271e-06
3.85404e-05
0.000267259
0.000224131
9.29519e-05
9.2884e-06
1.8884e-06
1.73722e-06
1.30346e-06
2.10284e-06
2.34735e-06
3.59018e-05
0.000252116
0.000204609
0.00010308
1.29584e-05
2.67012e-06
2.02836e-06
1.78016e-06
2.42671e-06
2.6727e-06
3.43979e-05
0.000235685
0.000185706
0.000113748
1.84923e-05
3.88576e-06
2.51491e-06
2.19975e-06
2.70596e-06
3.0425e-06
3.10131e-05
0.000224893
0.000167132
0.000128461
2.53057e-05
5.47425e-06
3.03724e-06
2.73943e-06
3.07335e-06
3.49295e-06
2.97996e-05
0.000210456
0.000148308
0.000139182
3.92465e-05
8.42883e-06
4.02263e-06
3.36919e-06
3.53718e-06
3.94786e-06
2.7669e-05
0.000201996
0.000128876
0.000147994
5.9481e-05
1.35943e-05
5.43425e-06
4.33099e-06
4.27727e-06
4.62107e-06
2.4041e-05
0.000186817
0.000108224
0.000160448
8.57218e-05
2.20211e-05
8.38301e-06
5.88532e-06
5.33425e-06
5.46773e-06
2.08991e-05
0.000177203
8.87996e-05
0.000177349
0.000119029
3.83482e-05
1.28843e-05
8.30625e-06
6.94687e-06
6.93165e-06
1.89513e-05
0.000154959
7.4048e-05
0.000197633
0.000161286
7.26492e-05
2.64914e-05
1.2943e-05
9.31362e-06
9.00534e-06
2.1176e-05
0.000140997
0.113646
0.0202539
0.0179928
0.0179839
0.0179834
0.0179834
0.0179838
0.0179927
0.0202492
0.113578
0.0392252
0.00115312
0.000452223
0.000445616
0.000445225
0.000444699
0.000444187
0.000452501
0.00115057
0.0390987
0.0165222
0.000288075
1.87905e-05
1.73101e-05
1.78305e-05
1.73417e-05
1.99274e-05
1.963e-05
0.000286754
0.016436
0.00821057
0.000170775
8.83707e-07
5.05034e-07
6.00062e-07
6.32808e-07
9.32054e-07
1.59781e-06
0.000167826
0.00813918
0.00471848
0.00010067
1.23141e-07
1.8027e-08
1.16551e-08
1.19579e-08
7.28125e-08
6.19867e-07
0.000101456
0.00466239
0.00301849
9.14019e-05
3.20727e-07
9.81144e-10
1.14805e-10
5.08974e-11
2.36956e-09
5.09496e-07
8.45864e-05
0.00299082
0.00210326
6.99295e-05
3.46264e-07
3.79542e-10
1.82808e-10
8.65326e-11
2.76332e-09
3.61082e-07
6.58216e-05
0.00209235
0.00155587
4.83232e-05
4.58259e-07
1.5536e-10
3.535e-10
3.2715e-10
3.07571e-09
2.93818e-07
4.19385e-05
0.00155111
0.00120134
4.37017e-05
3.23315e-07
5.49734e-10
2.36298e-09
4.30162e-10
2.38861e-09
2.51172e-07
2.87869e-05
0.00120448
0.000961315
2.48201e-05
4.37107e-07
2.33215e-09
2.37358e-09
1.14072e-09
2.92954e-09
2.38494e-07
2.286e-05
0.000968085
0.000790906
3.14298e-05
3.52191e-07
1.44306e-09
2.04102e-09
7.89285e-10
2.16827e-09
2.15723e-07
1.52234e-05
0.000799442
0.000665903
4.34543e-05
3.27206e-07
2.19705e-09
1.52006e-09
1.71397e-09
1.88971e-09
1.93581e-07
2.41994e-05
0.000675752
0.000570986
6.11349e-05
2.88872e-07
2.97954e-09
1.21394e-09
1.62904e-09
1.30465e-09
1.77113e-07
3.80278e-05
0.000582453
0.000497273
7.29439e-05
4.18799e-07
3.01218e-09
1.22519e-09
1.82366e-09
1.73905e-09
1.4833e-07
4.74121e-05
0.000510844
0.000438695
6.97264e-05
6.77333e-07
8.56215e-09
1.07322e-09
1.5495e-09
1.3301e-09
1.23652e-07
5.00513e-05
0.000453749
0.000390994
7.14672e-05
8.16225e-07
9.25194e-09
1.66307e-09
1.13425e-09
9.56563e-10
1.17677e-07
4.86621e-05
0.000408087
0.000351616
7.22005e-05
9.84551e-07
1.27003e-08
1.71226e-09
8.8104e-10
9.16899e-10
1.01503e-07
4.55286e-05
0.000370006
0.000318453
7.65896e-05
1.88841e-06
1.83646e-08
1.65402e-09
1.08019e-09
9.78193e-10
1.40906e-07
4.26303e-05
0.000339105
0.000289956
7.68429e-05
3.12891e-06
5.07928e-08
3.48438e-09
1.22173e-09
1.16903e-09
3.52794e-07
3.99469e-05
0.000312066
0.000264854
7.65793e-05
4.80315e-06
1.5677e-07
6.01131e-09
1.69795e-09
1.77762e-09
4.47933e-07
3.78172e-05
0.000290459
0.000242463
8.18167e-05
6.4555e-06
2.93731e-07
1.24559e-08
1.52081e-09
3.59573e-09
5.20668e-07
3.56247e-05
0.000270072
0.00022187
8.59213e-05
9.29969e-06
5.70593e-07
3.94923e-08
3.50758e-09
3.17508e-09
5.69828e-07
3.39455e-05
0.000254744
0.000202634
9.61335e-05
1.18827e-05
9.34756e-07
6.41836e-08
8.8824e-09
1.09308e-08
5.83127e-07
3.13808e-05
0.000238125
0.000184101
0.000103619
1.69546e-05
1.65932e-06
1.76019e-07
2.36382e-08
2.28889e-08
5.71276e-07
2.91495e-05
0.000227086
0.000166012
0.0001181
2.16639e-05
2.71108e-06
2.89387e-07
5.87709e-08
4.19685e-08
5.19717e-07
2.5548e-05
0.000211753
0.000147997
0.000129176
3.0992e-05
4.45514e-06
7.0035e-07
9.99065e-08
6.44055e-08
4.71036e-07
2.26359e-05
0.000203097
0.000129741
0.000136344
4.77031e-05
7.59222e-06
1.15599e-06
2.53258e-07
1.17839e-07
3.91825e-07
1.8039e-05
0.000185937
0.000110875
0.000143826
6.72682e-05
1.36561e-05
2.67831e-06
4.59809e-07
1.8556e-07
3.70242e-07
1.50163e-05
0.00017711
9.19872e-05
0.000155004
8.96213e-05
2.32432e-05
4.93498e-06
1.21548e-06
3.87338e-07
4.21908e-07
1.03762e-05
0.000150074
7.30844e-05
0.000165706
0.000118156
3.63664e-05
9.98307e-06
2.51603e-06
8.03829e-07
5.37544e-07
8.94639e-06
0.000139371
0.113628
0.020255
0.0179925
0.0179834
0.017983
0.017983
0.0179834
0.0179924
0.0202503
0.113559
0.0391694
0.00115264
0.000450562
0.000444771
0.000443891
0.000443558
0.000445117
0.000451244
0.00115012
0.0390434
0.0164654
0.000289805
1.7689e-05
1.70541e-05
1.70892e-05
1.75669e-05
1.74618e-05
1.84657e-05
0.000287186
0.0163827
0.00817667
0.000167525
8.23947e-07
6.88933e-07
7.04354e-07
6.12517e-07
6.08903e-07
4.67285e-07
0.000167176
0.00810274
0.00467681
0.000110446
1.21781e-07
2.43228e-08
1.85889e-08
8.3437e-09
1.28768e-08
1.46546e-07
0.000104531
0.00463129
0.00300478
7.36076e-05
1.96371e-07
4.38051e-11
5.14213e-11
1.45129e-12
1.61774e-10
2.6286e-07
8.00174e-05
0.00297136
0.00209242
5.6119e-05
4.94254e-07
4.699e-10
4.08516e-14
1e-15
5.34084e-12
1.04676e-07
5.73077e-05
0.00207972
0.00154492
4.3329e-05
3.84533e-07
9.36557e-11
1.66377e-14
1.94109e-14
1.92125e-11
8.81369e-08
4.45673e-05
0.00153767
0.00119196
3.70428e-05
4.63411e-07
8.0246e-10
1.15665e-12
2.47832e-14
8.227e-11
1.53533e-07
3.46165e-05
0.00119177
0.000952656
3.2186e-05
3.30183e-07
7.27205e-10
1.94514e-12
1.59941e-13
1.16151e-10
1.56737e-07
2.88177e-05
0.00095741
0.000783211
5.90147e-05
2.91466e-07
8.58804e-10
3.58323e-12
2.48513e-13
4.96431e-11
1.24615e-07
1.61291e-05
0.000791012
0.000659153
8.447e-05
3.16116e-07
2.32534e-09
5.65682e-12
7.82931e-13
5.69835e-11
9.79297e-08
2.655e-05
0.000669298
0.000565551
9.21531e-05
5.69025e-07
2.81299e-09
6.87745e-12
1.4441e-12
1.06817e-10
1.32516e-07
4.1534e-05
0.000577307
0.000492786
9.11026e-05
1.00831e-06
4.58532e-09
1.44404e-11
2.31913e-12
9.29184e-11
1.34061e-07
5.04526e-05
0.000506204
0.000434907
8.63932e-05
1.01085e-06
5.82675e-09
5.46843e-11
2.36793e-12
1.18095e-10
1.8578e-07
5.49019e-05
0.000449418
0.000387911
8.53896e-05
1.34462e-06
9.92398e-09
1.17933e-10
2.12169e-12
1.42959e-10
2.56189e-07
5.54504e-05
0.000404156
0.000349068
8.56063e-05
1.79618e-06
1.28257e-08
4.03542e-11
1.95752e-12
1.85616e-10
4.46121e-07
5.42514e-05
0.000366344
0.000316295
8.38982e-05
2.71821e-06
3.08901e-08
2.95537e-10
5.14514e-12
2.28097e-10
4.61436e-07
5.28981e-05
0.000336021
0.000288285
8.87532e-05
3.80685e-06
7.23028e-08
9.0412e-10
3.19982e-12
3.12706e-10
6.02396e-07
5.04472e-05
0.000309314
0.000263672
9.01296e-05
5.31939e-06
1.73187e-07
2.54022e-09
5.44793e-11
4.35061e-10
7.67825e-07
4.50003e-05
0.00028834
0.00024162
9.1911e-05
6.65213e-06
2.75077e-07
1.4496e-08
3.7822e-10
1.08631e-09
7.6376e-07
4.45985e-05
0.000268339
0.00022127
9.2043e-05
8.99418e-06
5.24602e-07
2.03864e-08
7.0105e-10
1.79392e-09
7.95319e-07
4.24917e-05
0.00025375
0.000202106
9.55767e-05
1.11677e-05
8.01099e-07
6.75468e-08
1.63847e-09
2.89405e-09
7.96289e-07
3.84363e-05
0.000237385
0.000183682
0.000100969
1.57387e-05
1.45607e-06
9.93437e-08
1.13774e-08
4.15951e-09
7.42315e-07
3.44529e-05
0.000226678
0.000165547
0.000113993
1.99767e-05
2.35152e-06
2.86628e-07
1.69541e-08
5.9198e-09
6.38316e-07
2.90559e-05
0.00021145
0.000147474
0.000126192
2.90892e-05
4.0332e-06
4.52087e-07
7.05124e-08
9.94475e-09
5.00196e-07
2.46391e-05
0.000202307
0.000128941
0.000133802
4.52696e-05
6.86933e-06
1.14929e-06
1.17494e-07
1.13908e-08
3.81035e-07
1.89703e-05
0.000185724
0.000109644
0.000142793
6.72016e-05
1.34384e-05
2.11548e-06
4.05868e-07
8.54597e-08
2.36806e-07
1.514e-05
0.00017493
8.98789e-05
0.000154109
8.88159e-05
2.25433e-05
4.83444e-06
8.10476e-07
1.2572e-07
2.68232e-07
1.01236e-05
0.000148864
6.92775e-05
0.000165188
0.000118273
3.6968e-05
9.37298e-06
2.34262e-06
6.38611e-07
3.22773e-07
8.31752e-06
0.000135277
0.113628
0.020255
0.0179924
0.0179834
0.0179829
0.017983
0.0179834
0.0179925
0.0202503
0.113559
0.0391693
0.00115263
0.000451756
0.000445228
0.000441792
0.000443808
0.000445115
0.000450721
0.00115012
0.0390438
0.0164657
0.000289835
1.96044e-05
1.79666e-05
1.86118e-05
1.70142e-05
1.74257e-05
1.77393e-05
0.00028728
0.0163823
0.0081758
0.000167586
1.77734e-06
6.31335e-07
8.77328e-07
7.24468e-07
6.28013e-07
8.03824e-07
0.000166852
0.00810718
0.00467892
0.000109825
8.11832e-07
4.30512e-09
2.57763e-08
1.95064e-08
1.82477e-08
9.92527e-08
0.000105053
0.00463027
0.00300381
7.44097e-05
6.04893e-07
1.68763e-10
1.34272e-11
1.50347e-11
2.80959e-11
1.77402e-07
8.05294e-05
0.00297258
0.00209382
5.51308e-05
6.20707e-07
6.78094e-10
3.27568e-15
1.63878e-15
2.86845e-11
1.95098e-07
5.61457e-05
0.00207838
0.00154395
3.8818e-05
6.04922e-07
1.16846e-09
1.03094e-14
1.29546e-15
1.75189e-10
2.1745e-07
5.12897e-05
0.00154001
0.00119282
2.78602e-05
4.31808e-07
1.81342e-09
5.55617e-14
7.01015e-15
2.59882e-10
2.4975e-07
3.52543e-05
0.00119065
0.000954114
2.32365e-05
4.02133e-07
1.97258e-09
1.41854e-13
9.48767e-15
4.63878e-10
3.56452e-07
5.85393e-05
0.000955463
0.000784502
1.52932e-05
3.12637e-07
1.5183e-09
9.16481e-13
4.86734e-14
2.48436e-10
2.97138e-07
7.34993e-05
0.000790276
0.000660213
3.11029e-05
2.72574e-07
3.37001e-09
2.50939e-12
9.42752e-14
1.50244e-10
2.15428e-07
7.86728e-05
0.000669575
0.000566025
2.5406e-05
2.45868e-07
2.83662e-09
9.60967e-12
8.1926e-13
2.43255e-10
2.80295e-07
7.70812e-05
0.000578021
0.00049282
3.3801e-05
2.18418e-07
2.84777e-09
9.75545e-12
8.5377e-13
2.30223e-10
3.18361e-07
7.22383e-05
0.000506956
0.000434843
4.8755e-05
2.5668e-07
2.65694e-09
2.70856e-11
1.46004e-12
2.39532e-10
3.35532e-07
6.67414e-05
0.000450026
0.000387834
5.79525e-05
3.76094e-07
3.0171e-09
3.8286e-11
1.99316e-12
2.19022e-10
6.0191e-07
6.1752e-05
0.000404576
0.000348884
5.88569e-05
6.17989e-07
4.7337e-09
7.40913e-11
4.85728e-12
2.29725e-10
5.6739e-07
5.72391e-05
0.00036661
0.000316171
6.4845e-05
7.86295e-07
5.18616e-09
1.03899e-10
5.08302e-12
2.71684e-10
7.14171e-07
5.37136e-05
0.000336159
0.000287914
6.45303e-05
1.18681e-06
9.35419e-09
1.2666e-10
1.33199e-11
3.38547e-10
8.60299e-07
5.0671e-05
0.000309333
0.000263143
6.66176e-05
2.58696e-06
2.13842e-08
9.67612e-10
1.62245e-11
4.47054e-10
8.71665e-07
4.82035e-05
0.000288378
0.00024099
7.34704e-05
4.25273e-06
8.38963e-08
8.07219e-10
6.15568e-11
6.56963e-10
8.99143e-07
4.50678e-05
0.000268265
0.000220646
7.9182e-05
7.13752e-06
3.11321e-07
8.95268e-09
2.15754e-10
6.82868e-10
9.06608e-07
4.20178e-05
0.000253584
0.000201649
9.14653e-05
9.94047e-06
6.31526e-07
3.78832e-08
5.28942e-10
1.10663e-09
8.57121e-07
3.77593e-05
0.00023716
0.000183364
0.000100061
1.53977e-05
1.35529e-06
8.04096e-08
7.88083e-09
2.41647e-09
7.75323e-07
3.37583e-05
0.000226412
0.000165425
0.000115781
2.01843e-05
2.28514e-06
2.49844e-07
1.38785e-08
3.43297e-09
6.44264e-07
2.85564e-05
0.000211208
0.000147522
0.000127887
2.99781e-05
4.11342e-06
4.43953e-07
6.59796e-08
7.92535e-09
5.08797e-07
2.41861e-05
0.000202008
0.000129089
0.000135321
4.58787e-05
7.1866e-06
1.15228e-06
1.20826e-07
1.27405e-08
3.72381e-07
1.86691e-05
0.000185774
0.000109837
0.000143533
6.72137e-05
1.35596e-05
2.19319e-06
3.96114e-07
7.85171e-08
2.39227e-07
1.48205e-05
0.000172986
8.99794e-05
0.000154266
8.76767e-05
2.20383e-05
4.82178e-06
8.46018e-07
1.09986e-07
2.38323e-07
9.79541e-06
0.000150933
6.92985e-05
0.000164941
0.000117673
3.60255e-05
9.35863e-06
2.17584e-06
5.923e-07
3.10756e-07
8.31439e-06
0.000126648
0.113646
0.0202539
0.0179928
0.0179839
0.0179834
0.0179834
0.0179838
0.0179927
0.0202493
0.113578
0.0392244
0.00115312
0.000451923
0.000445856
0.000444843
0.000444845
0.000444154
0.000452363
0.00114995
0.0391003
0.0165225
0.000288128
1.84549e-05
1.72856e-05
1.71589e-05
1.74472e-05
1.99939e-05
1.89277e-05
0.000292579
0.0164296
0.00820893
0.000172022
7.61409e-07
6.03705e-07
6.63416e-07
6.05334e-07
8.93636e-07
7.6041e-07
0.000150533
0.00817502
0.00472309
9.85393e-05
2.45211e-07
1.17193e-08
1.06878e-08
1.26524e-08
7.63919e-08
8.63992e-08
0.000145015
0.0046287
0.00301715
9.61659e-05
2.30262e-07
4.44804e-11
2.1113e-11
2.10129e-10
5.81135e-09
2.83016e-07
9.66232e-05
0.00297159
0.00210351
7.68242e-05
4.39568e-07
1.218e-10
1.45401e-10
2.4597e-10
3.28013e-10
3.37619e-07
6.86672e-05
0.00206781
0.00155545
5.44727e-05
2.22228e-07
3.59005e-10
5.48786e-10
5.67154e-10
6.36705e-10
3.22729e-07
4.94393e-05
0.00154009
0.00120225
3.94118e-05
1.97483e-07
4.39856e-10
4.31448e-10
4.86682e-10
1.16923e-09
4.40677e-07
3.8363e-05
0.00119804
0.000961717
3.94372e-05
2.8813e-07
1.0418e-09
5.41735e-10
3.22748e-10
1.38402e-09
3.30199e-07
3.0506e-05
0.000964221
0.000791159
6.15773e-05
3.01544e-07
1.84366e-09
8.05188e-10
8.12232e-10
1.1897e-09
1.93296e-07
2.33062e-05
0.000797651
0.000666034
6.96796e-05
3.03776e-07
2.74374e-09
7.09392e-10
5.37175e-10
1.11585e-09
2.56225e-07
1.71148e-05
0.000675059
0.000571006
7.94196e-05
2.53247e-07
2.99507e-09
6.29202e-10
1.11701e-09
1.12924e-09
2.4576e-07
2.75e-05
0.000582375
0.000497295
8.69201e-05
4.38033e-07
4.12982e-09
6.7077e-10
9.06831e-10
1.16884e-09
1.66106e-07
3.7172e-05
0.000511051
0.000438731
8.35533e-05
3.93022e-07
2.9884e-09
8.46413e-10
7.88718e-10
1.04429e-09
3.81596e-07
4.31541e-05
0.000453857
0.000391099
8.37759e-05
7.56045e-07
9.79973e-09
1.1509e-09
7.88744e-10
1.23536e-09
5.58719e-07
4.6256e-05
0.000408103
0.000351703
8.1925e-05
1.11597e-06
1.31486e-08
1.84561e-09
8.83742e-10
1.45655e-09
5.39944e-07
4.70545e-05
0.00036986
0.000318566
8.51138e-05
1.55236e-06
1.97082e-08
1.58084e-09
1.10011e-09
2.00291e-09
6.36801e-07
4.67652e-05
0.00033911
0.000290026
8.51398e-05
3.02217e-06
3.06085e-08
5.7603e-09
1.38824e-09
2.83522e-09
7.1748e-07
4.54209e-05
0.000312034
0.000265043
8.72018e-05
5.06572e-06
1.29956e-07
1.2717e-08
1.83408e-09
4.02248e-09
8.01049e-07
4.41565e-05
0.000290727
0.000242731
9.2548e-05
7.23754e-06
2.91984e-07
2.38702e-08
2.6036e-09
4.90954e-09
8.01081e-07
4.20625e-05
0.000270444
0.000222294
9.77436e-05
1.03738e-05
6.00325e-07
6.08076e-08
4.02516e-09
1.64488e-08
8.08021e-07
3.97623e-05
0.000255383
0.000203184
0.000106367
1.36422e-05
1.01843e-06
8.70662e-08
8.63244e-09
1.95359e-08
7.82778e-07
3.60428e-05
0.000238963
0.000184858
0.000114043
1.89307e-05
1.88291e-06
2.15917e-07
1.5414e-08
3.77346e-08
7.30801e-07
3.25975e-05
0.000227774
0.000166838
0.000125131
2.42172e-05
2.94679e-06
3.25619e-07
5.13159e-08
4.66683e-08
6.26203e-07
2.77395e-05
0.000212721
0.000148944
0.000134645
3.5551e-05
5.13203e-06
7.81333e-07
1.12639e-07
6.86214e-08
5.36996e-07
2.37659e-05
0.000203432
0.000130599
0.000139335
5.01765e-05
8.3956e-06
1.2597e-06
2.91766e-07
1.33465e-07
4.15498e-07
1.85885e-05
0.000186407
0.000111859
0.000147682
7.11926e-05
1.50151e-05
2.89151e-06
5.28228e-07
1.8461e-07
4.11772e-07
1.4846e-05
0.000176688
9.28266e-05
0.000156471
9.15156e-05
2.36567e-05
4.9799e-06
1.27771e-06
4.85496e-07
4.18375e-07
1.0188e-05
0.000150444
7.38692e-05
0.000168698
0.000121885
3.94905e-05
1.06996e-05
2.57323e-06
7.69638e-07
6.45427e-07
8.26796e-06
0.000136786
0.113722
0.0202679
0.0180016
0.0179928
0.0179924
0.0179924
0.0179927
0.0180017
0.0202633
0.113655
0.0394001
0.00116518
0.000458412
0.000452196
0.000451363
0.0004515
0.00045107
0.000457993
0.00116273
0.0392757
0.0166588
0.000296676
1.98718e-05
1.87343e-05
1.87145e-05
1.93988e-05
2.07532e-05
1.93056e-05
0.000295389
0.0165712
0.00830405
0.000175305
1.4813e-06
7.51993e-07
7.42881e-07
1.41133e-06
1.0311e-06
7.5816e-07
0.000170933
0.00823765
0.0047783
0.000105285
8.60035e-07
7.60732e-08
8.83757e-08
3.57697e-07
1.92802e-07
4.03817e-07
0.000107905
0.00471929
0.00306301
8.45435e-05
7.6089e-07
2.11521e-07
2.37508e-07
3.76046e-07
3.45901e-07
5.09527e-07
7.77352e-05
0.00303605
0.00212394
6.25298e-05
7.21094e-07
2.4998e-07
2.77161e-07
2.28239e-07
3.29411e-07
2.84729e-07
5.294e-05
0.00212249
0.00157114
4.73382e-05
7.8114e-07
3.07524e-07
2.84605e-07
4.29747e-07
4.35651e-07
2.09547e-07
5.03701e-05
0.00157152
0.00121358
3.88533e-05
7.86824e-07
2.36814e-07
2.0286e-07
2.69826e-07
3.28403e-07
3.56207e-07
3.86378e-05
0.00121402
0.000970969
3.49106e-05
6.06167e-07
3.40273e-07
2.54178e-07
1.97381e-07
4.12551e-07
3.65249e-07
5.93842e-05
0.000973683
0.000798817
2.13441e-05
6.27352e-07
4.11545e-07
2.45995e-07
2.0892e-07
3.3258e-07
2.7805e-07
6.91719e-05
0.000804627
0.000671876
3.23008e-05
5.36327e-07
4.11985e-07
2.34641e-07
1.68676e-07
2.90474e-07
2.80644e-07
7.07589e-05
0.000680201
0.000576073
5.77693e-05
4.87412e-07
6.48077e-07
2.69711e-07
2.34555e-07
2.7007e-07
3.13651e-07
6.65869e-05
0.000585545
0.000501941
6.40349e-05
3.99205e-07
5.9616e-07
2.80813e-07
2.10215e-07
2.72222e-07
3.93172e-07
6.0799e-05
0.000512014
0.000442682
6.83178e-05
5.25883e-07
4.77999e-07
3.44062e-07
2.80751e-07
2.63851e-07
3.64562e-07
5.43987e-05
0.000453363
0.000394736
7.34193e-05
6.97921e-07
6.41002e-07
4.5467e-07
3.02075e-07
2.72398e-07
4.28074e-07
4.97258e-05
0.000406494
0.00035503
7.15334e-05
1.09523e-06
7.90564e-07
7.79545e-07
3.52008e-07
3.75613e-07
4.60463e-07
4.63016e-05
0.000367596
0.000321602
7.52367e-05
1.21537e-06
1.13752e-06
1.20127e-06
8.24621e-07
8.58103e-07
7.45095e-07
4.39823e-05
0.000336269
0.000292788
7.51774e-05
2.52494e-06
1.51798e-06
1.65855e-06
1.10471e-06
1.31719e-06
1.05165e-06
4.19227e-05
0.000308989
0.000267478
7.82448e-05
4.51677e-06
2.05531e-06
2.08882e-06
1.47692e-06
1.7035e-06
1.32313e-06
4.04775e-05
0.000287367
0.000244914
8.53116e-05
7.00763e-06
2.50872e-06
2.46883e-06
1.87602e-06
1.91143e-06
1.70816e-06
3.88191e-05
0.000267049
0.00022412
9.14598e-05
9.79173e-06
3.07743e-06
2.78265e-06
2.24538e-06
2.18033e-06
2.08784e-06
3.739e-05
0.000251843
0.000204672
0.000102485
1.33984e-05
3.63609e-06
3.16864e-06
2.65955e-06
2.43938e-06
2.40341e-06
3.51855e-05
0.000235576
0.000185832
0.000111507
1.85816e-05
4.61255e-06
3.60321e-06
3.0111e-06
2.7291e-06
2.8046e-06
3.30152e-05
0.000224612
0.000167286
0.000126365
2.4792e-05
5.9266e-06
4.199e-06
3.5575e-06
3.0647e-06
3.1097e-06
2.97608e-05
0.000210024
0.000148567
0.000137568
3.7593e-05
8.35405e-06
5.19419e-06
4.34492e-06
3.509e-06
3.58671e-06
2.65438e-05
0.000201326
0.000129241
0.00014655
5.78085e-05
1.29838e-05
6.69572e-06
5.2956e-06
4.26624e-06
4.1805e-06
2.29047e-05
0.000185584
0.000108986
0.000159995
8.42063e-05
2.15361e-05
8.72993e-06
6.83715e-06
5.35583e-06
4.98613e-06
1.93352e-05
0.000176203
8.97614e-05
0.000176811
0.000118495
3.76087e-05
1.34735e-05
9.48512e-06
6.7998e-06
6.44915e-06
1.74716e-05
0.000152619
7.49754e-05
0.000197963
0.000161078
7.1618e-05
2.64655e-05
1.3392e-05
9.46088e-06
8.35242e-06
1.94093e-05
0.00014035
0.114055
0.0225945
0.0202638
0.0202498
0.0202509
0.0202509
0.0202498
0.0202639
0.0225906
0.113992
0.0396811
0.00208282
0.00116335
0.0011511
0.00115083
0.00115073
0.00115059
0.00116316
0.00207932
0.0395627
0.0167489
0.000750715
0.000294081
0.000287204
0.00028725
0.000288429
0.000292728
0.000295661
0.00074923
0.0166437
0.00834548
0.000424431
0.000174034
0.000169212
0.000169637
0.000165782
0.000151941
0.000172461
0.000408795
0.00824255
0.00479433
0.000258951
9.95116e-05
0.000100792
0.000101023
0.000109034
0.000139634
0.000106037
0.000266196
0.00469642
0.00305602
0.000183612
9.25474e-05
8.8204e-05
8.83755e-05
7.38415e-05
0.000111018
8.25897e-05
0.000143966
0.00301707
0.00212234
0.000119403
8.14163e-05
6.6962e-05
6.93329e-05
5.53729e-05
9.05842e-05
6.27682e-05
0.000160008
0.00207876
0.00154622
0.000171586
6.23845e-05
4.85061e-05
4.39234e-05
3.93762e-05
6.72073e-05
4.60661e-05
0.000198125
0.00151995
0.00116971
0.000182272
4.50485e-05
3.73719e-05
2.98452e-05
2.80791e-05
4.64868e-05
3.72429e-05
0.000146276
0.00116025
0.000939308
0.000182908
3.37989e-05
3.47479e-05