/*--------------------------------*- C++ -*----------------------------------*\
| =========                 |                                                 |
| \\      /  F ield         | OpenFOAM: The Open Source CFD Toolbox           |
|  \\    /   O peration     | Version:  4.1                                   |
|   \\  /    A nd           | Web:      www.OpenFOAM.org                      |
|    \\/     M anipulation  |                                                 |
\*---------------------------------------------------------------------------*/
FoamFile
{
    version     2.0;
    format      ascii;
    class       volScalarField;
    location    "1200";
    object      nut;
}
// * * * * * * * * * * * * * * * * * * * * * * * * * * * * * * * * * * * * * //

dimensions      [0 2 -1 0 0 0 0];

internalField   nonuniform List<scalar> 
12000
(
0.00382745
0.00376077
0.00375473
0.00375346
0.00375313
0.00375311
0.00375342
0.00375491
0.00376325
0.00382998
0.00225737
0.00221471
0.00221652
0.00221185
0.0022103
0.0022103
0.00221173
0.00221567
0.00221417
0.00225609
0.00145683
0.00141449
0.00143081
0.00142636
0.00142402
0.00142366
0.00142625
0.00143036
0.00141477
0.00145703
0.00102441
0.000981889
0.000993069
0.000986391
0.000984234
0.000986028
0.000986802
0.00099216
0.000980991
0.00102279
0.000773708
0.000738589
0.000743662
0.000744634
0.0007417
0.000738817
0.000744995
0.000749438
0.000737665
0.000771709
0.000619187
0.000603171
0.000603868
0.000595155
0.000594283
0.000597018
0.000596233
0.000601534
0.000601252
0.000616338
0.000511444
0.000492567
0.000503179
0.000503305
0.000498749
0.000505206
0.000503817
0.000507366
0.000492788
0.000510861
0.00043785
0.000426961
0.000438935
0.000437299
0.000432658
0.000434136
0.000438687
0.000441417
0.000421907
0.000436428
0.000379893
0.000352887
0.000388756
0.000387976
0.000382393
0.000385516
0.00038803
0.00039027
0.000364445
0.000380879
0.000338818
0.000328736
0.00034964
0.000348918
0.000344899
0.000346332
0.00034846
0.000350925
0.000335534
0.000339603
0.000306292
0.000307294
0.000317771
0.000317142
0.000314235
0.000315702
0.000316762
0.000319284
0.000309417
0.000307433
0.000279861
0.000286497
0.000292116
0.00029131
0.000290249
0.000290441
0.000291173
0.000293552
0.000287096
0.00028174
0.000258009
0.00026699
0.000271179
0.00027017
0.000268558
0.000269532
0.000270405
0.000272402
0.000267693
0.000260762
0.000239704
0.000249636
0.000253547
0.000252566
0.000251385
0.000252099
0.000252916
0.00025473
0.000250528
0.000243237
0.000224169
0.000234535
0.000238526
0.000237697
0.000237106
0.000237407
0.000238224
0.000239848
0.000235794
0.000228494
0.000210759
0.00022132
0.000225552
0.00022496
0.000224375
0.000224879
0.000225722
0.000227168
0.000223011
0.000216
0.000198997
0.000209723
0.000214378
0.000213962
0.000213609
0.000214042
0.000214925
0.000216329
0.000212103
0.000205439
0.000188491
0.000199555
0.000204486
0.000204396
0.000204234
0.000204699
0.0002056
0.000206971
0.000202744
0.000196412
0.000178899
0.000190377
0.000195783
0.000195979
0.000195958
0.000196443
0.000197476
0.000198931
0.000194855
0.000188796
0.000169921
0.000182073
0.000188109
0.000188511
0.000188717
0.000189392
0.000190454
0.000191953
0.000188042
0.000182218
0.000161258
0.000174482
0.00018108
0.000181836
0.000182193
0.000182958
0.000184232
0.000185988
0.000182436
0.000176794
0.000152511
0.000166994
0.0001745
0.000175807
0.000176473
0.000177555
0.000178851
0.000180701
0.000177521
0.000172063
0.000143235
0.000159335
0.000168268
0.00017022
0.000171044
0.000172347
0.000174004
0.000176285
0.000173784
0.000168475
0.000132714
0.000151229
0.000161942
0.000164961
0.000166375
0.000168103
0.000169809
0.000172275
0.000170392
0.000165296
0.000119923
0.000141616
0.000155316
0.000159722
0.000161431
0.000163521
0.000165932
0.000169129
0.00016812
0.000163543
0.000102005
0.000129648
0.000147494
0.000154308
0.000157337
0.000159904
0.000162374
0.000166033
0.000165926
0.000161923
7.52007e-05
0.000112453
0.000137784
0.000147712
0.00015158
0.000155336
0.000158912
0.000163952
0.000164759
0.000162813
6.28935e-05
9.12749e-05
0.000122944
0.000138449
0.000147495
0.000150989
0.000155125
0.000160703
0.000164041
0.000161524
7.41883e-05
8.80409e-05
0.000100536
0.00011949
0.000133476
0.000146286
0.000149329
0.000159607
0.000163382
0.000168357
9.3252e-05
0.000104967
0.000110412
0.000102439
0.000123199
0.000123364
0.00014244
0.000149434
0.000164231
0.000166013
0.00376079
7.07655e-05
5.74281e-05
5.73754e-05
5.73867e-05
5.73866e-05
5.73754e-05
5.7427e-05
7.07008e-05
0.00375703
0.00221472
4.32792e-06
1.55071e-06
1.53661e-06
1.53851e-06
1.5384e-06
1.53725e-06
1.55268e-06
4.30383e-06
0.002196
0.00141455
1.4375e-06
2.51616e-07
2.40977e-07
2.41623e-07
2.44244e-07
2.41886e-07
2.52106e-07
1.41059e-06
0.00138978
0.000981586
1.02789e-06
1.84263e-07
1.88019e-07
1.90066e-07
1.82071e-07
1.90084e-07
1.98889e-07
9.94709e-07
0.000944555
0.000738836
1.07841e-06
1.7923e-07
1.51772e-07
1.53972e-07
1.81007e-07
1.54435e-07
1.63386e-07
9.50517e-07
0.000701904
0.000602777
7.63416e-07
1.70011e-07
2.51405e-07
2.56397e-07
1.78946e-07
2.4705e-07
2.53093e-07
6.44504e-07
0.00057149
0.000492069
1.94464e-06
1.4385e-07
3.73661e-07
4.34072e-07
2.12497e-07
3.86556e-07
3.06636e-07
1.84928e-06
0.000476509
0.000426472
5.9063e-06
1.31438e-07
2.08336e-07
5.20063e-07
1.7642e-07
1.94238e-07
4.34903e-07
7.05942e-06
0.000409073
0.000352326
6.56687e-06
1.68078e-07
1.57405e-07
2.50541e-06
1.71124e-07
1.89375e-07
5.15926e-07
4.7759e-06
0.000353421
0.000328165
2.78985e-05
3.39924e-07
1.87941e-07
1.34374e-06
2.07156e-07
2.57556e-07
1.44843e-06
7.87295e-06
0.00032513
0.000306605
3.16438e-05
2.38078e-07
1.67327e-07
2.13243e-06
1.86851e-07
2.16077e-07
5.11767e-06
8.43061e-06
0.00030231
0.00028571
3.79158e-05
1.6334e-06
1.14917e-06
5.54803e-06
7.1526e-07
1.60124e-06
1.24555e-05
1.16849e-05
0.000282549
0.000265988
5.33402e-05
4.54114e-06
4.35685e-06
4.57702e-06
3.09197e-06
5.02575e-06
2.2061e-05
2.23339e-05
0.00026492
0.000248413
7.28967e-05
1.08638e-05
1.11318e-05
1.47477e-05
8.026e-06
1.28227e-05
3.03084e-05
4.49551e-05
0.000249166
0.000233056
8.63744e-05
1.93824e-05
2.04017e-05
2.30099e-05
1.57437e-05
2.35265e-05
3.67143e-05
6.38824e-05
0.000235445
0.000219528
9.64547e-05
2.99755e-05
3.03598e-05
2.74277e-05
2.45393e-05
3.34515e-05
4.16271e-05
7.58549e-05
0.000223475
0.000207565
0.000101972
3.70678e-05
3.83513e-05
3.60817e-05
3.29269e-05
4.13583e-05
4.53905e-05
8.24468e-05
0.000212991
0.000196971
0.000110927
4.49713e-05
4.36249e-05
4.03582e-05
3.96382e-05
4.75688e-05
4.85578e-05
8.44568e-05
0.000203847
0.000187292
0.000117768
5.00889e-05
4.77224e-05
4.51414e-05
4.43598e-05
5.13171e-05
5.14502e-05
8.61424e-05
0.000195643
0.000178425
0.000123222
6.07581e-05
5.08676e-05
4.86184e-05
4.83974e-05
5.44439e-05
5.3774e-05
8.69357e-05
0.000188562
0.000170283
0.000132918
6.06793e-05
5.55637e-05
5.19101e-05
5.15847e-05
5.71422e-05
5.66504e-05
8.82154e-05
0.000181991
0.000162204
0.000136321
6.2161e-05
5.81507e-05
5.38281e-05
5.42438e-05
5.97706e-05
5.92009e-05
8.969e-05
0.000176544
0.000154107
0.000150191
7.08818e-05
6.07028e-05
5.58915e-05
5.69457e-05
6.19781e-05
6.19295e-05
9.05265e-05
0.000171363
0.000145762
0.000156675
8.8069e-05
6.57487e-05
6.02539e-05
5.95604e-05
6.41623e-05
6.42991e-05
9.19685e-05
0.000167072
0.00013657
0.000164469
0.000103315
7.2083e-05
6.33941e-05
6.2851e-05
6.62845e-05
6.82891e-05
9.31681e-05
0.000162848
0.000125759
0.000177367
0.000135734
8.46441e-05
7.12026e-05
6.83982e-05
7.01813e-05
6.94551e-05
9.26017e-05
0.00016058
0.000112443
0.00018913
0.000154106
9.76582e-05
7.71506e-05
7.36121e-05
7.38463e-05
7.63046e-05
9.46256e-05
0.000154684
9.59442e-05
0.000205509
0.000193199
0.000129032
9.12315e-05
8.19857e-05
8.13607e-05
7.73261e-05
9.85246e-05
0.000158369
8.75179e-05
0.000221541
0.000215777
0.000161635
0.000110669
9.32475e-05
9.03543e-05
9.02864e-05
0.000108488
0.000145397
8.92712e-05
0.00024114
0.000251477
0.000223523
0.000152018
0.000112727
0.000106439
0.000104573
0.000114607
0.000168418
0.00375475
5.74308e-05
4.6039e-05
4.60152e-05
4.60184e-05
4.60178e-05
4.60144e-05
4.60394e-05
5.73944e-05
0.0037472
0.00221649
1.55232e-06
3.14318e-07
3.08719e-07
3.06968e-07
3.10195e-07
3.11326e-07
3.14746e-07
1.54501e-06
0.00219287
0.00143126
2.49481e-07
2.64142e-09
2.35646e-09
2.2439e-09
2.50785e-09
2.47165e-09
2.59156e-09
2.48625e-07
0.00140447
0.000990581
1.94645e-07
5.37661e-11
4.3556e-12
1.97265e-11
5.13235e-11
5.97336e-11
1.05866e-10
1.84451e-07
0.000958631
0.000748355
1.52801e-07
7.76408e-11
3.06982e-12
3.01954e-12
2.1811e-11
1.24774e-11
3.29124e-11
1.61445e-07
0.000713964
0.000598967
2.43966e-07
6.73335e-11
7.19923e-12
2.46116e-11
1.5076e-11
7.83287e-12
3.28652e-11
1.93837e-07
0.000576509
0.000497861
1.83857e-07
1.09456e-10
8.83061e-12
1.11968e-10
1.23085e-11
2.59061e-11
4.00904e-11
1.86883e-07
0.00049145
0.000435552
1.53287e-07
1.72673e-10
1.49721e-11
2.97335e-10
4.96674e-11
2.19951e-11
4.95619e-11
4.46914e-07
0.000429455
0.000386639
1.82951e-07
1.47638e-10
2.31458e-11
1.1432e-09
5.36724e-11
3.02245e-11
6.57271e-11
3.19266e-07
0.000379808
0.000348595
3.24925e-07
1.55209e-10
2.98602e-11
1.32951e-09
6.71013e-11
3.16546e-11
7.4617e-11
2.73188e-07
0.000343101
0.000316492
3.00326e-07
1.42472e-10
5.27488e-11
5.58113e-10
7.66759e-11
4.03901e-11
1.54986e-10
1.0834e-07
0.000313971
0.000291754
1.44787e-06
1.46836e-10
9.10143e-11
2.59307e-10
8.21031e-11
7.02645e-11
2.18752e-10
1.09345e-06
0.000290153
0.000269556
1.32062e-06
1.48658e-10
2.07768e-10
3.56422e-10
8.56715e-11
8.36552e-11
3.11613e-10
4.71621e-06
0.000270334
0.000251908
1.01506e-05
3.7433e-10
4.04206e-10
1.27295e-09
8.25747e-11
1.64925e-10
8.16104e-10
1.08363e-05
0.000253678
0.000236844
1.43666e-05
4.66109e-10
1.25025e-09
2.6463e-09
1.22092e-10
3.87274e-10
1.21035e-09
1.79445e-05
0.000239356
0.000223424
2.36459e-05
9.78217e-10
9.49479e-09
1.25508e-08
1.66764e-10
1.24221e-09
2.16981e-09
2.39452e-05
0.00022701
0.000211956
3.51414e-05
6.35844e-09
1.24944e-08
9.62881e-08
4.54531e-10
5.00803e-09
6.19661e-09
2.89835e-05
0.000216055
0.000201685
4.15271e-05
1.25874e-08
2.41363e-08
6.63347e-08
1.06613e-09
2.31037e-08
1.26203e-08
3.20063e-05
0.00020667
0.000192374
5.08996e-05
1.12895e-08
1.41722e-07
1.86311e-07
3.26497e-09
1.28112e-07
1.19738e-07
3.43398e-05
0.000197988
0.000183827
6.38942e-05
3.40776e-07
1.18643e-07
5.60541e-07
4.41881e-08
4.07976e-07
4.91377e-07
3.58831e-05
0.000190842
0.000175814
7.793e-05
2.01416e-06
2.45084e-07
1.04929e-06
8.76588e-08
1.13552e-06
1.30195e-06
3.65121e-05
0.000183742
0.00016811
9.02768e-05
6.44327e-06
8.05027e-07
1.72799e-06
2.6085e-07
1.28799e-06
1.78669e-06
3.53606e-05
0.000178281
0.000160572
0.000103648
1.253e-05
2.00313e-06
2.29073e-06
8.0916e-07
2.04994e-06
2.52481e-06
3.65912e-05
0.000172169
0.000152899
0.000117566
2.02405e-05
3.98081e-06
3.25651e-06
1.76085e-06
2.81749e-06
3.50357e-06
3.30353e-05
0.000167953
0.000145028
0.000134532
2.99804e-05
6.39341e-06
3.96265e-06
3.03149e-06
3.59736e-06
4.53042e-06
3.44996e-05
0.000162502
0.000136587
0.000143075
5.01817e-05
1.09416e-05
5.56751e-06
4.32744e-06
4.38368e-06
5.29957e-06
3.41778e-05
0.000159396
0.000127397
0.000152968
7.54151e-05
1.83145e-05
6.95496e-06
5.91818e-06
5.50875e-06
6.21042e-06
2.98104e-05
0.000153158
0.000116711
0.000167347
0.000102376
2.87217e-05
1.2013e-05
8.34396e-06
6.89696e-06
7.30994e-06
2.68983e-05
0.000151151
0.000105852
0.00018255
0.000140531
4.95675e-05
1.55881e-05
1.17142e-05
8.97187e-06
8.24845e-06
2.22678e-05
0.000138178
9.66506e-05
0.000202153
0.000175992
9.29373e-05
3.40934e-05
1.736e-05
1.11834e-05
1.08997e-05
2.08298e-05
0.000138065
0.00375347
5.73781e-05
4.60148e-05
4.59909e-05
4.59939e-05
4.59943e-05
4.5989e-05
4.60146e-05
5.73425e-05
0.00374547
0.00221186
1.53761e-06
3.09987e-07
3.05051e-07
3.05548e-07
3.04578e-07
3.04676e-07
3.10894e-07
1.53055e-06
0.00218851
0.0014263
2.417e-07
2.35658e-09
2.15804e-09
2.19131e-09
2.17817e-09
2.39468e-09
2.52097e-09
2.39695e-07
0.0014014
0.000986205
1.90359e-07
2.15705e-11
1.24812e-11
1.3958e-11
1.48849e-11
1.8363e-11
3.9275e-11
1.83286e-07
0.000956602
0.000744696
1.49422e-07
1.98479e-12
4.94621e-14
1.16724e-14
1.08687e-14
2.53929e-13
1.60386e-11
1.5132e-07
0.000714899
0.000594788
2.74527e-07
1.42745e-11
1.4098e-16
6.81545e-18
6.10287e-18
7.97129e-16
1.27464e-11
2.3074e-07
0.000574713
0.000501793
3.51029e-07
2.4365e-11
1.12791e-16
8.98786e-17
3.93647e-16
8.94725e-16
9.79535e-12
3.42083e-07
0.000489017
0.000437572
3.51775e-07
5.30725e-11
2.68818e-15
2.55522e-15
1.87443e-14
1.95188e-15
1.32785e-11
1.89468e-07
0.000427648
0.000386616
6.36584e-07
4.86435e-11
1.40607e-13
1.49147e-13
4.49135e-14
2.49379e-15
1.31611e-11
1.41349e-07
0.000381935
0.000347366
3.08655e-07
1.24868e-10
7.3969e-13
2.7781e-13
1.4663e-13
9.34376e-15
1.85412e-11
1.61819e-07
0.000345311
0.000315603
8.46285e-07
1.29097e-10
6.678e-13
4.30635e-13
1.05728e-13
7.34856e-15
2.85886e-11
1.57253e-07
0.000315191
0.000290145
3.17559e-06
1.74239e-10
2.45044e-12
6.65124e-13
3.87662e-13
8.6944e-15
5.46501e-11
7.91254e-07
0.000290514
0.000268552
1.0964e-05
2.57232e-10
4.28892e-12
7.26309e-13
4.41634e-13
7.55131e-15
1.01777e-10
3.65305e-06
0.000270237
0.000250669
2.42662e-05
1.20549e-09
4.60875e-12
1.71743e-12
5.95758e-13
1.85019e-14
1.58022e-10
9.7679e-06
0.000253625
0.000235649
3.15543e-05
8.22559e-09
7.4722e-11
1.68656e-12
6.5783e-13
2.13807e-14
2.41684e-10
1.71297e-05
0.000239388
0.000222338
4.21857e-05
1.23518e-08
4.78362e-11
8.49273e-12
5.70331e-13
2.05564e-14
4.74446e-10
2.3363e-05
0.000227219
0.000210834
5.03235e-05
2.6235e-08
1.41768e-10
7.92648e-12
7.76294e-13
5.17611e-14
7.59942e-10
2.74289e-05
0.000216468
0.000200713
6.40142e-05
1.70803e-07
3.62993e-10
9.407e-12
1.65203e-12
1.16258e-13
2.95367e-09
3.0164e-05
0.000207254
0.000191482
6.4906e-05
8.34274e-07
3.86275e-09
4.71961e-11
3.17507e-12
3.88943e-13
4.01824e-08
3.184e-05
0.000198738
0.000182926
6.59822e-05
2.59922e-06
4.72254e-08
1.76339e-10
1.12427e-11
1.97509e-12
8.11471e-08
3.29909e-05
0.000191697
0.000174951
7.51022e-05
5.13251e-06
1.7548e-07
8.65248e-10
9.73212e-12
2.15617e-11
1.6837e-07
3.35305e-05
0.000184667
0.000167303
8.09163e-05
9.21863e-06
5.13135e-07
1.42549e-08
6.26681e-11
1.88407e-11
3.23045e-07
3.40599e-05
0.000179381
0.000159836
9.51282e-05
1.27646e-05
1.00925e-06
2.85482e-08
4.6555e-10
4.38187e-10
4.82118e-07
3.32765e-05
0.000173203
0.000152294
0.000103113
1.94828e-05
2.03461e-06
2.15669e-07
5.79078e-09
2.38558e-09
5.84698e-07
3.22986e-05
0.00016936
0.000144604
0.00012291
2.51053e-05
3.31007e-06
2.74956e-07
3.06959e-08
1.38636e-08
6.04659e-07
2.94791e-05
0.000163221
0.000136552
0.000131689
3.81966e-05
5.78706e-06
1.16919e-06
9.57133e-08
2.89697e-08
5.85594e-07
2.68136e-05
0.000160494
0.000127923
0.000141017
5.6814e-05
9.67532e-06
1.32983e-06
2.59795e-07
1.26659e-07
4.97986e-07
2.19604e-05
0.000152474
0.000118313
0.000150186
7.90598e-05
1.78265e-05
4.26979e-06
6.37908e-07
1.43926e-07
5.01039e-07
1.81358e-05
0.000151978
0.000107845
0.000163344
0.000104379
2.94161e-05
6.51024e-06
1.55806e-06
5.28269e-07
4.48825e-07
1.25716e-05
0.000133477
9.60279e-05
0.000175292
0.000137864
4.53141e-05
1.34903e-05
3.39814e-06
8.83678e-07
6.14732e-07
9.10594e-06
0.000144276
0.00375314
5.73891e-05
4.60186e-05
4.59944e-05
4.59976e-05
4.5997e-05
4.59944e-05
4.60184e-05
5.73535e-05
0.00374512
0.00221033
1.53901e-06
3.07846e-07
3.04367e-07
3.03947e-07
3.03926e-07
3.05227e-07
3.09389e-07
1.53175e-06
0.00218704
0.00142352
2.45455e-07
2.29051e-09
2.19015e-09
2.1909e-09
2.17875e-09
2.18588e-09
2.39672e-09
2.41068e-07
0.00139936
0.000985712
1.83954e-07
2.53402e-11
1.60648e-11
1.56711e-11
1.34098e-11
1.40375e-11
4.98184e-12
1.82998e-07
0.000955422
0.000738144
1.81215e-07
2.96803e-12
4.04229e-14
2.70169e-14
5.05696e-15
1.85962e-14
1.5511e-12
1.61953e-07
0.000712336
0.000596738
1.8186e-07
2.11538e-11
6.93472e-18
4.17503e-19
1.81812e-20
3.1951e-18
4.03956e-12
2.10151e-07
0.000573898
0.000503659
2.34242e-07
1.07422e-10
1.06525e-15
3.13804e-23
5.6127e-22
7.98022e-19
2.33221e-12
2.59243e-07
0.000489707
0.000437206
3.01433e-07
9.04353e-11
4.68429e-15
3.35008e-20
2.12785e-18
1.26328e-16
4.8624e-12
2.02698e-07
0.000425629
0.000385928
4.63889e-07
1.61623e-10
2.28303e-13
2.48887e-16
7.17338e-18
3.36394e-15
3.78848e-11
1.83451e-07
0.000379198
0.000346256
7.10788e-07
1.32864e-10
2.65569e-13
2.86451e-16
1.4541e-16
3.67432e-15
6.10648e-11
2.30863e-07
0.000342305
0.000313694
4.55784e-06
1.93083e-10
3.62075e-13
2.70989e-15
2.81609e-16
2.04029e-15
7.09865e-11
1.59166e-07
0.000312738
0.000287999
1.63891e-05
5.32713e-10
4.74926e-12
9.68614e-15
1.00922e-15
3.18421e-15
8.10906e-11
8.66363e-07
0.000288609
0.000267124
3.1368e-05
3.55623e-09
3.4401e-12
1.48114e-14
2.20625e-15
1.30075e-14
3.80963e-10
4.01368e-06
0.00026895
0.00024963
4.4363e-05
2.88628e-08
1.11036e-11
2.24841e-13
5.00908e-15
1.13654e-14
5.44865e-10
1.03475e-05
0.000252413
0.00023459
5.24489e-05
2.80698e-08
2.00842e-11
9.69189e-14
7.8329e-15
2.38204e-14
1.87989e-09
1.93408e-05
0.000238208
0.000221599
6.16702e-05
9.12863e-08
1.13606e-10
8.7363e-13
6.29764e-15
5.74071e-14
7.76865e-09
2.81146e-05
0.00022608
0.000210062
7.0607e-05
2.23129e-07
1.65634e-10
4.97621e-14
4.78705e-15
2.44501e-13
4.68684e-08
3.5217e-05
0.000215297
0.00019986
7.23735e-05
7.56803e-07
1.57978e-09
2.34206e-12
1.68423e-14
3.49724e-13
9.04484e-08
4.08655e-05
0.000206153
0.000190785
8.77787e-05
2.01805e-06
1.09373e-08
3.55837e-11
7.23152e-15
1.19162e-12
2.48037e-07
4.41619e-05
0.000197717
0.000182442
8.70251e-05
4.19575e-06
7.87714e-08
2.68417e-10
2.10405e-12
5.32036e-12
5.33942e-07
3.98653e-05
0.0001907
0.000174768
9.1239e-05
6.34445e-06
1.90235e-07
1.54243e-08
6.74932e-11
5.14027e-11
6.47651e-07
4.44398e-05
0.000183858
0.000167274
9.19907e-05
9.47491e-06
5.28659e-07
9.3265e-09
2.86187e-10
2.36678e-10
8.32716e-07
4.52558e-05
0.000178858
0.000159744
9.60888e-05
1.22341e-05
8.62247e-07
1.07901e-07
6.4559e-10
1.04376e-09
9.62558e-07
4.28548e-05
0.000173056
0.000152242
0.000100867
1.80953e-05
1.79963e-06
7.19666e-08
2.84008e-08
3.16889e-09
1.01564e-06
3.95619e-05
0.00016934
0.000144468
0.0001189
2.29926e-05
2.80113e-06
4.8115e-07
1.04883e-08
4.21234e-09
8.93814e-07
3.41999e-05
0.000163678
0.000136338
0.000128892
3.49597e-05
5.2395e-06
4.15913e-07
1.36065e-07
4.36162e-08
6.99457e-07
2.92783e-05
0.000160385
0.000127509
0.0001386
5.4767e-05
8.57172e-06
1.88569e-06
9.60538e-08
4.59283e-09
5.13905e-07
2.29277e-05
0.000153267
0.000117566
0.000148993
8.05174e-05
1.8111e-05
2.45004e-06
7.08819e-07
1.63139e-06
3.22822e-07
1.79323e-05
0.000151751
0.00010654
0.000162609
0.000103637
2.90857e-05
7.18827e-06
8.71967e-07
7.79472e-08
3.82378e-07
1.20451e-05
0.000133968
9.32705e-05
0.000174166
0.000139068
4.70738e-05
1.22231e-05
3.29e-06
1.03069e-06
4.58934e-07
8.2653e-06
0.000144051
0.00375313
5.73892e-05
4.60181e-05
4.59935e-05
4.59952e-05
4.59977e-05
4.59944e-05
4.60186e-05
5.73535e-05
0.00374513
0.00221031
1.53908e-06
3.10259e-07
3.05635e-07
3.02011e-07
3.03825e-07
3.05215e-07
3.08452e-07
1.53186e-06
0.00218711
0.00142359
2.45712e-07
2.50955e-09
2.20491e-09
2.32806e-09
2.19232e-09
2.18916e-09
2.30215e-09
2.41433e-07
0.00139934
0.000985465
1.84258e-07
4.73988e-11
1.38154e-11
1.89481e-11
1.64707e-11
1.48271e-11
2.5237e-11
1.82925e-07
0.000956594
0.000738897
1.79623e-07
2.56309e-11
4.19068e-15
3.20977e-14
2.38062e-14
2.57505e-14
2.5891e-12
1.64628e-07
0.000712121
0.000596261
1.86577e-07
1.6152e-11
1.25303e-17
5.67621e-19
8.62497e-19
3.16615e-18
2.05661e-11
2.17565e-07
0.000574488
0.000504408
2.25987e-07
2.48939e-11
5.47114e-16
2.68394e-21
6.52541e-22
2.03698e-17
3.45302e-11
2.31874e-07
0.000489064
0.000436533
1.55538e-07
3.01461e-11
3.06393e-15
1.22718e-19
3.5649e-21
9.76762e-16
6.80381e-11
4.19008e-07
0.000427015
0.000386623
1.30789e-07
2.71918e-11
1.13096e-14
3.49365e-18
3.94131e-20
2.84676e-15
1.2432e-10
4.11386e-07
0.000378466
0.000346891
1.65714e-07
4.38482e-11
2.82139e-14
1.97646e-17
6.12144e-20
1.21834e-14
3.40948e-10
2.28626e-06
0.000341095
0.000314791
1.59108e-07
7.11964e-11
3.40964e-14
1.20887e-16
1.71331e-19
4.78483e-15
4.48593e-10
6.95153e-06
0.000312192
0.000288914
1.31902e-06
7.09779e-11
1.73525e-13
3.01757e-16
5.17156e-19
2.662e-15
5.52421e-10
1.44323e-05
0.000288745
0.000267571
1.6658e-06
8.81415e-11
2.05401e-13
1.2468e-15
3.28082e-18
9.26554e-15
2.04728e-09
2.31748e-05
0.000269452
0.000249403
5.03006e-06
1.23329e-10
2.86709e-13
1.16884e-15
8.03376e-18
1.13302e-14
5.65704e-09
3.1137e-05
0.000253024
0.000234334
1.57806e-05
3.73026e-10
4.29316e-13
4.16973e-15
3.01136e-17
1.65927e-14
1.29808e-08
3.7179e-05
0.00023877
0.000221315
2.98928e-05
1.73381e-09
7.93662e-13
1.04004e-14
7.42904e-17
1.92848e-14
8.10416e-08
4.12269e-05
0.000226519
0.000209947
3.73481e-05
1.16865e-08
2.97813e-12
3.63757e-14
6.27577e-16
2.92301e-14
1.27216e-07
4.34939e-05
0.000215616
0.00019998
5.2449e-05
2.18286e-08
5.09254e-12
1.01467e-13
2.4566e-15
7.77233e-14
3.12666e-07
4.50275e-05
0.000206374
0.000190741
5.13435e-05
7.17554e-08
2.73585e-11
1.67951e-13
1.33337e-14
2.94261e-13
6.11811e-07
4.61003e-05
0.000197835
0.000182299
5.63068e-05
5.52028e-07
2.68285e-10
1.94924e-11
2.66646e-14
1.13491e-12
7.70857e-07
4.69392e-05
0.000190891
0.000174372
6.70572e-05
2.12318e-06
7.35199e-09
6.30126e-12
7.24186e-13
6.71942e-12
9.3661e-07
4.65048e-05
0.000184016
0.000166774
7.4748e-05
5.98546e-06
1.33703e-07
1.19663e-09
8.83514e-12
7.75977e-12
1.0584e-06
4.53859e-05
0.000178918
0.000159347
9.19987e-05
1.00896e-05
5.14841e-07
1.76863e-08
3.59238e-11
2.62913e-11
1.08308e-06
4.24028e-05
0.000173049
0.000151882
0.000100853
1.77773e-05
1.56197e-06
7.03949e-08
1.7562e-08
1.54887e-10
1.03321e-06
3.89059e-05
0.000169251
0.000144228
0.000122848
2.33983e-05
2.67727e-06
3.11215e-07
8.65398e-09
4.78366e-10
8.7233e-07
3.37804e-05
0.000163611
0.000136229
0.000131817
3.78566e-05
5.36054e-06
5.72142e-07
1.54021e-07
2.67952e-09
7.01293e-07
2.8802e-05
0.000160051
0.000127515
0.000141007
5.53079e-05
9.03895e-06
1.60164e-06
1.04961e-07
5.1029e-09
5.01579e-07
2.27111e-05
0.000154393
0.000117687
0.000150103
8.02438e-05
1.78498e-05
3.00231e-06
6.81036e-07
2.18815e-07
3.24882e-07
1.74137e-05
0.000146156
0.000106635
0.000162836
0.000101494
2.85314e-05
6.8752e-06
9.33112e-07
6.08208e-08
2.90274e-07
1.19315e-05
0.000142152
9.3309e-05
0.000173804
0.000138176
4.4429e-05
1.27293e-05
2.87343e-06
8.85813e-07
3.90488e-07
7.89105e-06
0.000116341
0.00375344
5.73781e-05
4.60154e-05
4.59912e-05
4.59941e-05
4.59943e-05
4.5989e-05
4.60147e-05
5.73425e-05
0.0037455
0.00221173
1.53783e-06
3.09266e-07
3.05326e-07
3.04604e-07
3.04902e-07
3.04761e-07
3.10788e-07
1.52972e-06
0.00218874
0.00142635
2.4229e-07
2.40501e-09
2.1865e-09
2.18752e-09
2.18075e-09
2.39166e-09
2.33183e-09
2.51631e-07
0.00140048
0.000985765
1.94886e-07
1.23011e-11
1.46034e-11
1.56801e-11
1.419e-11
1.76072e-11
2.30879e-11
1.46484e-07
0.000965552
0.00074636
1.44889e-07
1.13788e-12
1.1773e-14
8.41537e-15
1.57653e-14
3.84638e-13
2.07555e-12
3.35217e-07
0.000704595
0.000594173
3.08307e-07
1.68632e-12
1.39005e-18
6.66468e-19
8.64241e-18
2.19584e-15
5.91104e-11
2.0134e-07
0.000567439
0.0005018
4.27914e-07
7.5592e-12
1.33045e-16
1.02212e-16
1.95779e-17
1.1761e-16
5.17709e-11
1.37876e-07
0.000476364
0.000437331
4.69842e-07
4.80711e-12
3.86961e-15
1.25635e-15
1.33615e-16
1.60423e-15
1.33429e-10
1.09275e-07
0.000421468
0.000387188
5.19172e-07
7.29889e-12
2.12927e-14
1.62462e-15
1.85781e-16
9.86365e-15
5.1515e-10
1.23183e-07
0.00037789
0.000347637
1.05503e-06
4.29676e-11
1.46273e-13
4.27723e-15
1.69276e-16
2.22754e-14
4.70567e-10
1.805e-07
0.00034225
0.000315899
4.92483e-06
5.68051e-11
4.37213e-13
1.4305e-14
1.36131e-15
3.05756e-14
3.26272e-10
2.26767e-07
0.000313195
0.000290252
1.12224e-05
8.63702e-11
1.16546e-12
2.02956e-14
9.93554e-16
6.16787e-14
1.28907e-09
2.55496e-07
0.000289342
0.000268594
2.32576e-05
1.11165e-10
1.31071e-12
4.61313e-14
5.6791e-15
1.22447e-13
2.58329e-09
1.31969e-06
0.000269657
0.000250695
3.96685e-05
9.22898e-10
1.97228e-12
6.41949e-14
5.29204e-15
3.41335e-13
2.49978e-09
4.52977e-06
0.000253487
0.000235596
4.82895e-05
8.54685e-10
1.39843e-12
2.06336e-13
8.20835e-15
2.35395e-13
2.64668e-08
1.0499e-05
0.000239414
0.000222362
5.82133e-05
5.73786e-09
1.62064e-11
1.00818e-12
1.10826e-14
5.71649e-13
1.05658e-07
1.85785e-05
0.000227266
0.000210871
6.28269e-05
2.43393e-08
4.99797e-11
6.42183e-12
2.64205e-14
1.27975e-12
1.64626e-07
2.66325e-05
0.000216423
0.000200725
7.36892e-05
8.91527e-08
2.24458e-10
8.81756e-12
9.5879e-14
3.91981e-12
3.32238e-07
3.32871e-05
0.000207189
0.000191414
7.48136e-05
6.22049e-07
8.38151e-10
1.77787e-10
3.98717e-13
1.37902e-11
5.39017e-07
3.76267e-05
0.000198677
0.000182901
7.93327e-05
2.47041e-06
2.24179e-08
1.56004e-09
8.74342e-13
4.55134e-11
7.71673e-07
4.07369e-05
0.000191653
0.000174968
8.85786e-05
5.73327e-06
1.34432e-07
4.95838e-09
3.73992e-12
8.38882e-11
8.56967e-07
4.20687e-05
0.000184775
0.000167383
9.61063e-05
1.02622e-05
4.91206e-07
5.53068e-08
1.01586e-11
1.32084e-09
9.46459e-07
4.21447e-05
0.000179524
0.000159981
0.000108024
1.52436e-05
1.0927e-06
7.20438e-08
1.01073e-10
2.13183e-09
9.93975e-07
3.99103e-05
0.000173687
0.000152584
0.000116815
2.19924e-05
2.32562e-06
3.00389e-07
3.48657e-10
1.02994e-08
9.69484e-07
3.72559e-05
0.000169759
0.000144989
0.000130763
2.90791e-05
3.61696e-06
4.10048e-07
7.56432e-09
1.57628e-08
8.46592e-07
3.25363e-05
0.000163906
0.000137037
0.00013779
4.60304e-05
6.93783e-06
1.11987e-06
3.91946e-08
4.369e-08
7.37538e-07
2.82315e-05
0.000161062
0.00012842
0.000144081
6.01168e-05
1.11124e-05
1.74795e-06
3.29688e-07
1.30406e-07
5.63437e-07
2.25505e-05
0.000153137
0.000118864
0.000154389
8.41547e-05
1.95604e-05
4.23668e-06
5.07862e-07
2.25167e-07
5.71356e-07
1.75864e-05
0.00015084
0.000108419
0.000164743
0.00010623
2.99173e-05
6.55064e-06
2.0397e-06
7.1573e-07
5.8147e-07
1.21281e-05
0.000135656
9.6403e-05
0.000178815
0.000143146
5.079e-05
1.49807e-05
2.98722e-06
9.92306e-07
8.43195e-07
7.72497e-06
0.000145
0.00375493
5.743e-05
4.60396e-05
4.60149e-05
4.60182e-05
4.60182e-05
4.60133e-05
4.60398e-05
5.73951e-05
0.00374713
0.00221567
1.55343e-06
3.14496e-07
3.10386e-07
3.09946e-07
3.10167e-07
3.1002e-07
3.13848e-07
1.54666e-06
0.00219276
0.00143034
2.53844e-07
2.57561e-09
2.31993e-09
2.32216e-09
2.50842e-09
2.52052e-09
2.58429e-09
2.51636e-07
0.00140535
0.000991402
2.0032e-07
4.16416e-11
2.24736e-11
2.01731e-11
3.11546e-11
2.41226e-11
1.09738e-11
1.91351e-07
0.000963081
0.000749607
1.72427e-07
1.33983e-11
2.39042e-12
1.49113e-12
5.74269e-12
1.91332e-12
9.19788e-12
1.73461e-07
0.000719371
0.000601725
1.9301e-07
1.43048e-11
2.11882e-11
1.3799e-11
6.36295e-12
1.79042e-11
1.44647e-11
2.02831e-07
0.000582242
0.000502091
1.39488e-07
1.69481e-11
6.50158e-11
2.80432e-11
3.37581e-12
1.6488e-11
1.28014e-11
2.04031e-07
0.000495453
0.00043891
1.26945e-07
3.87829e-11
2.27478e-10
4.55506e-11
1.47111e-11
4.7207e-11
1.80513e-11
4.03145e-07
0.00043218
0.000388992
1.5785e-07
7.46367e-11
1.79586e-10
3.54035e-11
8.45529e-12
5.63522e-11
1.21167e-10
4.81698e-07
0.000382902
0.000349448
2.88152e-07
7.33453e-11
7.05878e-10
1.05199e-10
8.75479e-12
1.08625e-10
2.57495e-10
2.34529e-06
0.000345142
0.000317755
2.3045e-07
1.68124e-10
1.81496e-09
2.31603e-10
1.92642e-11
9.89328e-11
2.82909e-10
6.13773e-06
0.000315986
0.000291101
1.07281e-06
1.67176e-10
3.10502e-09
4.654e-10
2.45292e-11
1.42076e-10
6.65357e-10
1.16303e-05
0.000292117
0.000269584
6.53793e-06
2.07241e-10
1.80561e-08
1.33267e-09
1.09168e-10
2.8935e-10
1.75657e-09
1.75411e-05
0.000272066
0.000252026
1.42624e-05
2.61276e-10
1.27924e-08
3.1694e-09
1.97007e-10
6.46417e-10
6.23196e-09
2.30731e-05
0.00025502
0.000236509
2.56291e-05
1.0782e-09
1.03096e-08
8.50336e-09
7.81057e-10
1.31439e-09
7.76083e-09
2.67964e-05
0.000240219
0.000223369
4.09038e-05
4.03731e-09
2.58656e-08
1.61205e-08
2.00906e-09
2.95691e-09
1.2243e-08
2.98946e-05
0.000227485
0.000211888
5.04633e-05
2.51197e-08
4.44123e-08
5.93516e-08
5.6469e-09
1.13222e-08
1.86204e-08
3.23104e-05
0.000216218
0.000201732
5.76724e-05
3.41806e-08
1.22107e-07
2.12586e-07
7.47012e-08
1.09155e-07
8.82197e-08
3.44912e-05
0.000206623
0.00019239
6.17829e-05
2.50825e-07
2.90334e-07
6.52662e-07
1.3856e-07
4.32152e-07
1.99883e-07
3.59599e-05
0.00019789
0.00018378
6.92341e-05
1.40843e-06
8.1179e-07
1.45342e-06
3.61317e-07
8.96116e-07
4.0685e-07
3.74843e-05
0.000190688
0.000175767
8.09218e-05
4.49053e-06
1.67593e-06
2.40003e-06
8.57842e-07
1.11472e-06
9.53231e-07
3.83665e-05
0.000183681
0.000168078
9.00484e-05
8.72932e-06
2.89983e-06
3.20969e-06
1.69457e-06
1.66669e-06
1.83617e-06
3.92757e-05
0.000178282
0.000160551
0.000104484
1.45757e-05
4.06617e-06
4.09404e-06
2.89665e-06
2.42364e-06
2.66623e-06
3.87248e-05
0.000172343
0.000152951
0.00011521
2.12712e-05
5.73642e-06
4.82703e-06
3.84793e-06
3.22953e-06
3.63808e-06
3.83124e-05
0.000168337
0.000145111
0.000132989
2.98986e-05
7.39364e-06
5.98321e-06
5.03262e-06
3.92015e-06
4.24715e-06
3.5403e-05
0.000162707
0.00013674
0.000141637
4.79799e-05
1.11009e-05
7.21455e-06
6.55231e-06
4.71037e-06
5.12411e-06
3.30317e-05
0.000159617
0.000127545
0.0001518
7.36378e-05
1.66592e-05
9.97599e-06
7.9991e-06
5.80237e-06
5.94321e-06
2.84098e-05
0.00015287
0.000117062
0.00016731
0.000101131
2.92425e-05
1.0908e-05
1.00866e-05
7.43313e-06
7.01492e-06
2.48824e-05
0.000149904
0.00010631
0.000182938
0.000141645
4.81999e-05
1.81115e-05
1.4569e-05
8.9676e-06
8.27453e-06
2.04921e-05
0.000137489
9.69748e-05
0.000203807
0.000178069
9.63094e-05
3.3888e-05
1.72965e-05
1.19768e-05
1.03082e-05
1.98313e-05
0.000138629
0.00376326
7.07072e-05
5.73977e-05
5.73457e-05
5.73569e-05
5.73568e-05
5.73455e-05
5.7398e-05
7.06742e-05
0.00375587
0.00221412
4.30428e-06
1.54673e-06
1.5318e-06
1.53342e-06
1.53339e-06
1.53134e-06
1.54758e-06
4.28744e-06
0.00219238
0.00141485
1.4153e-06
2.47814e-07
2.40281e-07
2.4098e-07
2.43413e-07
2.51248e-07
2.52004e-07
1.40817e-06
0.00138495
0.000979073
1.0339e-06
1.92936e-07
1.86762e-07
1.88612e-07
1.80201e-07
1.51091e-07
1.94808e-07
9.44151e-07
0.000938314
0.000740973
8.73039e-07
1.41276e-07
1.49764e-07
1.51539e-07
1.75889e-07
2.84623e-07
1.67258e-07
8.9406e-07
0.000694176
0.000592672
9.83957e-07
2.63572e-07
2.55753e-07
2.55568e-07
1.81409e-07
3.93894e-07