/*--------------------------------*- C++ -*----------------------------------*\
| =========                 |                                                 |
| \\      /  F ield         | OpenFOAM: The Open Source CFD Toolbox           |
|  \\    /   O peration     | Version:  4.1                                   |
|   \\  /    A nd           | Web:      www.OpenFOAM.org                      |
|    \\/     M anipulation  |                                                 |
\*---------------------------------------------------------------------------*/
FoamFile
{
    version     2.0;
    format      ascii;
    class       volScalarField;
    location    "1200";
    object      p;
}
// * * * * * * * * * * * * * * * * * * * * * * * * * * * * * * * * * * * * * //

dimensions      [0 2 -2 0 0 0 0];

internalField   nonuniform List<scalar> 
12000
(
0.076268
0.0765481
0.0762132
0.0760927
0.0760551
0.0760536
0.0760884
0.0762063
0.0765387
0.076256
0.0757014
0.0756869
0.0756251
0.0756277
0.0756142
0.0756126
0.075623
0.0756177
0.0756771
0.0756889
0.0755825
0.0753467
0.0754094
0.0754579
0.0754598
0.0754579
0.0754525
0.0754009
0.0753354
0.0755681
0.0755534
0.0752904
0.0753755
0.0754037
0.0754037
0.0754015
0.0753972
0.0753653
0.0752769
0.0755363
0.0754569
0.0752387
0.0753251
0.0753283
0.0753258
0.0753232
0.0753202
0.0753122
0.0752217
0.0754359
0.0753336
0.0751601
0.0752435
0.0752339
0.0752336
0.0752305
0.0752238
0.0752275
0.0751387
0.0753075
0.0752308
0.0750899
0.0751672
0.0751503
0.0751527
0.0751486
0.0751374
0.0751471
0.0750639
0.0751983
0.0751551
0.0750392
0.0751084
0.0750854
0.0750884
0.075083
0.0750682
0.0750822
0.0750074
0.075114
0.0750976
0.0750024
0.0750612
0.0750329
0.0750355
0.0750282
0.0750103
0.0750261
0.0749597
0.0750437
0.0750518
0.074973
0.0750197
0.0749875
0.0749889
0.074979
0.0749579
0.0749732
0.0749135
0.0749796
0.0750145
0.0749472
0.074983
0.0749476
0.0749465
0.0749336
0.074909
0.0749221
0.0748674
0.0749196
0.0749851
0.0749248
0.0749512
0.0749128
0.0749078
0.0748913
0.0748627
0.0748721
0.0748209
0.0748624
0.0749633
0.0749065
0.0749245
0.0748827
0.0748722
0.0748511
0.0748178
0.0748218
0.0747726
0.0748056
0.0749503
0.0748944
0.0749035
0.0748569
0.0748393
0.0748119
0.0747727
0.0747701
0.0747208
0.0747463
0.0749474
0.0748901
0.0748888
0.0748356
0.0748087
0.074773
0.0747262
0.0747153
0.0746639
0.0746825
0.0749558
0.0748949
0.0748815
0.074819
0.07478
0.0747334
0.0746769
0.0746555
0.0745998
0.0746116
0.0749775
0.0749108
0.0748826
0.0748076
0.0747533
0.0746926
0.0746232
0.0745887
0.074526
0.0745307
0.0750149
0.0749403
0.0748936
0.074802
0.0747283
0.0746494
0.0745631
0.074512
0.074439
0.0744357
0.0750705
0.0749865
0.074916
0.0748028
0.0747047
0.0746025
0.0744941
0.074422
0.0743346
0.0743218
0.0751466
0.0750524
0.0749519
0.074811
0.0746822
0.0745501
0.0744129
0.0743138
0.0742065
0.074182
0.075244
0.0751408
0.0750031
0.0748274
0.0746606
0.0744905
0.0743157
0.0741809
0.0740462
0.0740064
0.0753608
0.075253
0.0750716
0.0748533
0.0746399
0.0744217
0.0741973
0.0740147
0.0738418
0.0737812
0.0754906
0.0753859
0.0751586
0.0748902
0.0746205
0.0743413
0.0740515
0.0738035
0.0735756
0.073485
0.07562
0.0755295
0.0752644
0.0749409
0.0746042
0.0742477
0.0738705
0.0735306
0.0732213
0.0730849
0.0757299
0.0756642
0.0753868
0.0750104
0.0745948
0.07414
0.0736452
0.073173
0.072737
0.0725245
0.0758023
0.0757676
0.0755225
0.0751079
0.0746001
0.0740192
0.0733637
0.0726963
0.0720529
0.0717031
0.0758365
0.0758312
0.0756665
0.0752399
0.0746295
0.0738891
0.0730137
0.0720526
0.0710509
0.0704073
0.0758612
0.0758981
0.0758189
0.0753975
0.0746831
0.0737484
0.0725716
0.0711589
0.0695253
0.0681696
0.0758691
0.0759337
0.0758902
0.0754957
0.0747191
0.0735887
0.0720324
0.0699188
0.0671811
0.0635556
0.0758344
0.0758725
0.0757674
0.0753649
0.0745813
0.0732758
0.0712619
0.0679871
0.0636217
0.0528452
0.0765493
0.0765877
0.0762573
0.0761384
0.0760984
0.0760969
0.0761341
0.0762505
0.0765786
0.0765368
0.0756881
0.0756419
0.0756073
0.075614
0.0755988
0.0755973
0.0756094
0.0756
0.0756323
0.0756754
0.0753481
0.0751327
0.0752188
0.0752737
0.0752746
0.0752728
0.0752685
0.0752105
0.0751216
0.0753334
0.0752922
0.0750355
0.075138
0.0751657
0.0751639
0.0751617
0.0751592
0.0751279
0.075022
0.0752747
0.0752411
0.075018
0.0751231
0.0751197
0.0751157
0.075113
0.0751116
0.0751106
0.0750014
0.0752193
0.0751631
0.07498
0.075083
0.075064
0.0750646
0.0750611
0.0750536
0.075067
0.0749588
0.0751359
0.0750939
0.0749427
0.0750368
0.0750085
0.0750143
0.0750099
0.074995
0.0750155
0.074915
0.0750605
0.0750444
0.0749197
0.0750014
0.0749658
0.0749738
0.0749682
0.0749482
0.074973
0.074883
0.0750032
0.0750092
0.0749034
0.0749724
0.0749329
0.0749407
0.0749335
0.07491
0.0749363
0.0748562
0.0749544
0.0749818
0.0748881
0.0749447
0.0749038
0.0749102
0.0749011
0.0748743
0.0748993
0.0748276
0.0749067
0.0749588
0.0748739
0.0749186
0.0748769
0.0748806
0.0748688
0.0748387
0.07486
0.0747954
0.0748591
0.0749397
0.0748624
0.0748961
0.0748528
0.0748521
0.0748366
0.0748028
0.0748192
0.0747598
0.0748113
0.0749254
0.0748547
0.0748784
0.0748318
0.0748249
0.0748045
0.0747666
0.074777
0.0747207
0.0747613
0.0749183
0.0748514
0.0748649
0.0748137
0.0747989
0.0747721
0.0747289
0.0747321
0.0746767
0.0747074
0.07492
0.0748538
0.074856
0.0747985
0.0747737
0.0747387
0.0746885
0.0746828
0.0746258
0.074648
0.0749319
0.0748638
0.0748529
0.0747867
0.0747494
0.0747036
0.0746441
0.0746273
0.0745663
0.0745806
0.0749559
0.0748834
0.0748567
0.0747786
0.0747256
0.0746659
0.0745939
0.0745635
0.0744957
0.0745019
0.0749942
0.0749149
0.0748689
0.0747748
0.0747022
0.0746245
0.0745361
0.0744887
0.0744108
0.0744079
0.0750491
0.0749609
0.074891
0.074776
0.0746787
0.0745778
0.074468
0.0743989
0.0743067
0.0742935
0.0751223
0.0750242
0.0749246
0.0747827
0.0746546
0.0745241
0.0743859
0.074289
0.0741771
0.0741513
0.0752147
0.0751071
0.0749714
0.0747954
0.0746292
0.0744609
0.0742856
0.0741521
0.0740127
0.073971
0.0753252
0.0752107
0.0750327
0.0748147
0.0746019
0.0743853
0.0741609
0.0739788
0.0738007
0.0737377
0.0754492
0.0753333
0.0751094
0.0748418
0.0745724
0.0742944
0.0740048
0.0737561
0.0735221
0.0734285
0.0755768
0.0754691
0.0752021
0.0748783
0.0745412
0.0741851
0.0738078
0.0734655
0.0731477
0.0730075
0.0756923
0.075606
0.0753105
0.0749282
0.0745112
0.0740557
0.0735589
0.0730809
0.0726314
0.0724134
0.075779
0.0757258
0.0754332
0.0749979
0.0744877
0.0739056
0.0732449
0.0725649
0.0718967
0.071536
0.0758279
0.0758108
0.0755638
0.075093
0.0744791
0.0737384
0.0728519
0.0718653
0.0708128
0.0701412
0.0758475
0.0758658
0.0756893
0.075205
0.0744864
0.0735539
0.0723581
0.0708989
0.0691576
0.0677223
0.0758352
0.0758677
0.0757391
0.0752722
0.0744855
0.0733527
0.0717606
0.0695636
0.0666117
0.062733
0.0758117
0.0757813
0.0755817
0.0751271
0.074338
0.0730381
0.0709949
0.0675704
0.0629103
0.0513383
0.0762156
0.0762586
0.0759519
0.0758287
0.0757871
0.0757857
0.0758243
0.0759451
0.0762496
0.0762028
0.0756275
0.0756085
0.0755802
0.075582
0.0755667
0.0755652
0.0755774
0.0755729
0.0755989
0.0756146
0.0754121
0.0752202
0.0753066
0.0753602
0.0753615
0.0753597
0.0753549
0.0752983
0.0752091
0.0753975
0.075379
0.0751398
0.0752403
0.0752668
0.0752646
0.0752624
0.0752603
0.0752301
0.0751262
0.0753614
0.0753292
0.0751254
0.0752308
0.0752251
0.0752203
0.0752175
0.0752168
0.0752181
0.0751085
0.0753079
0.0752488
0.075086
0.0751932
0.075172
0.0751731
0.0751696
0.0751615
0.0751768
0.0750643
0.0752225
0.0751744
0.0750405
0.0751397
0.0751101
0.075118
0.0751135
0.0750964
0.0751183
0.0750122
0.0751408
0.075118
0.0750059
0.0750921
0.0750556
0.0750666
0.075061
0.0750381
0.0750646
0.0749687
0.0750744
0.0750734
0.0749783
0.0750522
0.0750111
0.0750223
0.0750153
0.0749886
0.0750172
0.0749308
0.0750168
0.0750355
0.0749523
0.0750153
0.0749722
0.074982
0.0749731
0.0749431
0.0749706
0.0748923
0.0749614
0.0750036
0.0749284
0.0749807
0.0749364
0.0749435
0.074932
0.0748985
0.0749226
0.0748512
0.0749069
0.0749778
0.0749089
0.0749502
0.0749042
0.0749068
0.0748915
0.0748546
0.0748736
0.0748079
0.0748532
0.0749586
0.0748949
0.0749251
0.074876
0.0748722
0.074852
0.0748112
0.0748241
0.0747623
0.0747983
0.0749473
0.0748862
0.074905
0.0748516
0.0748396
0.0748131
0.0747674
0.0747728
0.0747127
0.0747402
0.0749449
0.0748836
0.0748901
0.0748307
0.0748086
0.074774
0.0747216
0.0747177
0.0746573
0.0746767
0.074953
0.0748887
0.0748811
0.0748133
0.0747788
0.0747336
0.0746721
0.074657
0.074594
0.0746055
0.0749731
0.0749033
0.0748793
0.0748
0.0747499
0.0746909
0.0746174
0.0745884
0.0745199
0.0745233
0.0750072
0.0749293
0.0748857
0.074791
0.0747214
0.0746446
0.0745551
0.074509
0.0744315
0.0744259
0.075057
0.0749691
0.0749018
0.0747866
0.0746926
0.074593
0.0744823
0.0744147
0.0743237
0.0743079
0.0751241
0.0750249
0.0749285
0.0747869
0.0746627
0.0745338
0.0743954
0.0743001
0.0741898
0.0741615
0.0752088
0.0750985
0.074967
0.0747921
0.0746304
0.0744642
0.0742891
0.0741578
0.0740202
0.073976
0.0753096
0.0751906
0.075018
0.0748022
0.0745944
0.0743808
0.0741572
0.0739778
0.0738014
0.0737357
0.075422
0.0752995
0.0750818
0.0748172
0.0745537
0.0742797
0.0739915
0.0737462
0.0735134
0.0734168
0.075538
0.0754205
0.0751581
0.0748377
0.0745078
0.074157
0.0737817
0.0734434
0.0731256
0.0729815
0.0756467
0.0755443
0.0752456
0.0748658
0.0744577
0.0740097
0.0735159
0.073042
0.0725899
0.0723656
0.0757363
0.0756583
0.0753425
0.0749053
0.0744075
0.073837
0.0731804
0.0725033
0.0718264
0.0714546
0.0757985
0.0757506
0.0754461
0.0749627
0.0743673
0.0736455
0.0727655
0.0717779
0.0707022
0.0700068
0.0758343
0.0758147
0.0755484
0.075042
0.0743526
0.0734519
0.0722666
0.0707988
0.068999
0.0675068
0.0758518
0.0758472
0.07563
0.075148
0.0744049
0.0733197
0.0717456
0.0695317
0.0664522
0.0624133
0.0758646
0.0758411
0.0756603
0.0752761
0.0745739
0.0733357
0.0713148
0.0678628
0.06299
0.0509706
0.0760965
0.076141
0.07583
0.075706
0.0756642
0.0756627
0.0757017
0.0758232
0.076132
0.0760835
0.0756314
0.0756166
0.0755833
0.0755857
0.0755705
0.0755689
0.0755811
0.0755761
0.075607
0.0756185
0.0754622
0.0752767
0.0753617
0.0754178
0.0754193
0.0754175
0.0754125
0.0753534
0.0752655
0.0754475
0.0754092
0.0751692
0.0752686
0.0752973
0.0752949
0.0752927
0.0752909
0.0752585
0.0751557
0.0753915
0.0753352
0.0751242
0.0752272
0.0752218
0.0752163
0.0752136
0.0752137
0.0752146
0.0751072
0.0753135
0.0752428
0.0750697
0.0751748
0.075153
0.0751535
0.07515
0.0751426
0.0751587
0.0750481
0.0752157
0.075162
0.0750159
0.0751136
0.075083
0.0750908
0.0750864
0.0750696
0.0750929
0.0749881
0.0751271
0.0751005
0.0749754
0.0750603
0.0750219
0.0750331
0.0750275
0.0750046
0.0750333
0.0749393
0.0750555
0.0750524
0.0749454
0.0750174
0.0749735
0.0749848
0.0749777
0.0749509
0.0749825
0.0748986
0.0749942
0.0750125
0.0749201
0.0749806
0.0749338
0.0749436
0.0749346
0.0749045
0.0749354
0.0748598
0.074937
0.0749798
0.0748982
0.0749475
0.0748992
0.0749062
0.0748945
0.0748611
0.0748887
0.0748201
0.074882
0.0749547
0.0748804
0.0749187
0.0748689
0.0748713
0.0748559
0.0748191
0.0748418
0.0747788
0.0748283
0.074937
0.0748678
0.074895
0.0748429
0.0748389
0.0748188
0.074778
0.0747943
0.0747351
0.0747744
0.0749272
0.0748607
0.0748766
0.0748209
0.0748087
0.0747824
0.0747366
0.0747451
0.0746873
0.0747176
0.0749261
0.0748599
0.0748634
0.0748025
0.0747801
0.0747458
0.0746934
0.0746922
0.0746336
0.0746555
0.0749353
0.0748665
0.0748561
0.0747876
0.0747526
0.0747078
0.0746464
0.0746336
0.0745718
0.0745853
0.0749562
0.0748823
0.0748555
0.0747762
0.0747257
0.0746672
0.0745938
0.0745668
0.0744992
0.0745039
0.0749904
0.0749089
0.0748626
0.0747685
0.0746986
0.0746225
0.0745332
0.0744888
0.0744117
0.0744071
0.0750395
0.0749485
0.0748785
0.0747646
0.0746705
0.0745718
0.0744615
0.0743953
0.0743044
0.074289
0.0751046
0.0750028
0.0749039
0.0747643
0.0746403
0.0745126
0.0743747
0.0742807
0.0741701
0.0741418
0.0751861
0.0750735
0.0749396
0.0747675
0.0746065
0.0744418
0.0742675
0.0741373
0.073999
0.0739544
0.0752825
0.0751612
0.0749863
0.0747737
0.0745674
0.0743557
0.0741332
0.0739549
0.0737773
0.0737106
0.0753899
0.0752646
0.075044
0.0747828
0.0745217
0.0742501
0.0739633
0.0737191
0.0734845
0.0733861
0.0755018
0.0753799
0.0751128
0.0747952
0.0744686
0.074121
0.0737476
0.0734102
0.0730896
0.0729426
0.0756099
0.0755002
0.0751925
0.0748134
0.0744098
0.0739662
0.0734748
0.0730014
0.0725447
0.0723156
0.0757056
0.075616
0.0752832
0.0748431
0.0743517
0.0737877
0.0731344
0.0724567
0.0717715
0.071391
0.0757825
0.0757184
0.0753861
0.0748966
0.0743115
0.0736003
0.0727249
0.071735
0.070644
0.0699324
0.0758399
0.0758019
0.0755019
0.0749929
0.074322
0.0734385
0.0722603
0.0707879
0.0689615
0.0674384
0.0758831
0.0758648
0.0756335
0.075171
0.0744601
0.0733994
0.0718366
0.0696196
0.0665058
0.0624253
0.0759142
0.0759002
0.0757788
0.0754698
0.074816
0.0736004
0.0715905
0.0681431
0.0632501
0.0512452
0.0760603
0.0761025
0.07579
0.0756657
0.0756238
0.0756223
0.0756614
0.0757832
0.0760934
0.0760473
0.0756196
0.075603
0.0755697
0.0755721
0.0755568
0.0755553
0.0755675
0.0755624
0.0755933
0.0756066
0.075466
0.0752794
0.0753649
0.0754211
0.0754225
0.0754207
0.0754158
0.0753565
0.0752682
0.0754512
0.0754114
0.0751697
0.0752686
0.0752971
0.0752943
0.0752921
0.0752906
0.0752585
0.075156
0.0753936
0.0753357
0.075123
0.0752252
0.075219
0.075213
0.0752103
0.0752109
0.0752126
0.0751059
0.0753137
0.0752466
0.0750739
0.0751793
0.075157
0.0751571
0.0751537
0.0751466
0.0751633
0.0750522
0.0752188
0.0751697
0.0750263
0.075126
0.0750953
0.0751031
0.0750988
0.0750819
0.0751054
0.0749986
0.075134
0.0751104
0.0749894
0.0750771
0.075039
0.0750505
0.075045
0.0750217
0.0750505
0.0749536
0.0750645
0.0750632
0.0749611
0.0750364
0.0749926
0.0750045
0.0749974
0.07497
0.0750016
0.0749147
0.0750043
0.0750238
0.0749368
0.0750008
0.0749539
0.0749645
0.0749554
0.0749245
0.0749553
0.0748767
0.0749483
0.0749911
0.0749153
0.0749682
0.0749196
0.0749275
0.0749157
0.0748814
0.0749089
0.0748372
0.0748941
0.0749658
0.0748971
0.0749388
0.0748888
0.0748922
0.0748769
0.0748389
0.0748616
0.0747954
0.0748408
0.0749477
0.0748834
0.0749139
0.0748615
0.0748587
0.0748386
0.0747967
0.0748131
0.0747506
0.074787
0.0749372
0.0748749
0.0748939
0.074838
0.074827
0.0748009
0.0747539
0.0747625
0.0747017
0.0747297
0.0749352
0.0748726
0.0748791
0.0748179
0.0747968
0.0747627
0.0747091
0.0747082
0.0746469
0.0746666
0.0749433
0.0748776
0.07487
0.0748012
0.0747676
0.074723
0.0746605
0.074648
0.0745839
0.0745955
0.0749629
0.0748915
0.0748674
0.0747878
0.0747387
0.0746805
0.0746062
0.0745796
0.0745099
0.0745132
0.0749954
0.074916
0.0748723
0.074778
0.0747095
0.0746338
0.0745437
0.0744997
0.0744211
0.0744153
0.0750425
0.0749529
0.0748855
0.0747716
0.0746791
0.0745809
0.07447
0.0744042
0.0743121
0.074296
0.0751052
0.0750043
0.074908
0.0747686
0.0746462
0.0745191
0.0743809
0.0742874
0.0741759
0.0741473
0.0751838
0.0750715
0.0749402
0.0747685
0.0746092
0.0744453
0.0742709
0.0741415
0.0740026
0.0739579
0.075277
0.0751554
0.0749828
0.0747709
0.0745665
0.0743557
0.0741334
0.0739559
0.073778
0.0737116
0.0753815
0.075255
0.0750359
0.0747757
0.0745164
0.074246
0.0739597
0.0737165
0.0734817
0.0733838
0.0754917
0.0753674
0.0751002
0.0747833
0.0744586
0.0741124
0.0737397
0.0734035
0.0730828
0.0729361
0.0756002
0.0754869
0.075176
0.0747967
0.0743951
0.0739534
0.0734629
0.0729906
0.0725336
0.0723045
0.0756995
0.0756052
0.0752649
0.074823
0.0743341
0.0737729
0.0731207
0.0724438
0.0717575
0.0713763
0.0757832
0.0757141
0.0753699
0.0748774
0.0742965
0.0735898
0.0727163
0.0717265
0.0706329
0.069919
0.0758487
0.0758064
0.0754947
0.0749848
0.0743218
0.0734459
0.0722713
0.070799
0.0689679
0.0674402
0.075898
0.0758771
0.0756455
0.0751937
0.0744984
0.0734509
0.0718961
0.0696817
0.0665645
0.0624729
0.0759323
0.0759202
0.0758278
0.0755551
0.0749293
0.0737342
0.0717399
0.0683025
0.063412
0.05138
0.0760604
0.0761026
0.0757901
0.0756658
0.0756239
0.0756224
0.0756614
0.0757832
0.0760935
0.0760474
0.0756197
0.0756031
0.0755698
0.0755722
0.0755569
0.0755553
0.0755676
0.0755625
0.0755934
0.0756067
0.0754661
0.0752795
0.0753649
0.0754212
0.0754226
0.0754208
0.0754159
0.0753566
0.0752683
0.0754513
0.0754116
0.0751698
0.0752687
0.0752971
0.0752944
0.0752922
0.0752907
0.0752586
0.0751561
0.0753935
0.0753358
0.0751231
0.0752253
0.0752191
0.0752131
0.0752104
0.075211
0.0752127
0.0751059
0.0753135
0.0752467
0.0750739
0.0751794
0.075157
0.0751571
0.0751537
0.0751467
0.0751633
0.0750521
0.0752186
0.0751698
0.0750264
0.075126
0.0750953
0.0751031
0.0750988
0.075082
0.0751054
0.0749985
0.0751339
0.0751106
0.0749893
0.075077
0.0750389
0.0750505
0.075045
0.0750217
0.0750504
0.0749535
0.0750643
0.0750635
0.0749609
0.0750362
0.0749925
0.0750044
0.0749974
0.07497
0.0750015
0.0749146
0.0750042
0.0750241
0.0749366
0.0750006
0.0749538
0.0749645
0.0749554
0.0749245
0.0749552
0.0748766
0.0749482
0.0749914
0.074915
0.074968
0.0749196
0.0749274
0.0749157
0.0748813
0.0749087
0.074837
0.0748942
0.0749659
0.0748967
0.0749387
0.0748887
0.0748921
0.0748768
0.0748388
0.0748613
0.0747951
0.074841
0.0749477
0.074883
0.0749138
0.0748614
0.0748585
0.0748385
0.0747965
0.0748129
0.0747504
0.074787
0.074937
0.0748746
0.0748938
0.0748377
0.0748268
0.0748007
0.0747537
0.0747623
0.0747015
0.0747295
0.074935
0.0748723
0.0748789
0.0748176
0.0747965
0.0747624
0.0747088
0.0747079
0.0746467
0.0746665
0.0749429
0.0748772
0.0748698
0.0748007
0.0747672
0.0747226
0.0746602
0.0746477
0.0745837
0.0745953
0.0749623
0.0748911
0.0748672
0.0747873
0.0747382
0.0746801
0.0746059
0.0745793
0.0745097
0.0745129
0.0749947
0.0749155
0.0748721
0.0747774
0.074709
0.0746333
0.0745434
0.0744995
0.0744207
0.0744148
0.0750415
0.0749524
0.0748853
0.074771
0.0746785
0.0745803
0.0744695
0.0744039
0.0743117
0.0742954
0.0751041
0.0750037
0.0749076
0.0747679
0.0746455
0.0745185
0.0743803
0.0742869
0.0741754
0.0741467
0.0751825
0.0750708
0.0749397
0.0747677
0.0746085
0.0744446
0.0742702
0.0741408
0.074002
0.0739572
0.0752756
0.0751545
0.0749821
0.0747701
0.0745656
0.0743548
0.0741325
0.0739552
0.0737773
0.0737108
0.07538
0.075254
0.0750351
0.0747747
0.0745154
0.074245
0.0739586
0.0737155
0.0734808
0.0733828
0.0754902
0.0753662
0.0750991
0.0747821
0.0744574
0.0741113
0.0737384
0.0734023
0.0730816
0.0729349
0.0755988
0.0754857
0.0751749
0.0747953
0.0743937
0.073952
0.0734614
0.0729892
0.0725321
0.0723029
0.0756984
0.0756041
0.0752636
0.0748216
0.0743325
0.0737713
0.073119
0.072442
0.0717557
0.0713743
0.0757825
0.0757132
0.0753687
0.0748759
0.0742947
0.073588
0.0727142
0.0717244
0.0706308
0.0699167
0.0758485
0.075806
0.0754938
0.0749835
0.07432
0.0734439
0.0722691
0.0707966
0.0689654
0.0674377
0.0758981
0.075877
0.0756449
0.0751925
0.0744966
0.0734487
0.0718936
0.069679
0.066562
0.0624717
0.0759326
0.0759203
0.0758271
0.0755536
0.0749271
0.0737315
0.071737
0.0682998
0.0634106
0.0513823
0.0760968
0.0761413
0.0758303
0.0757063
0.0756644
0.075663
0.075702
0.0758235
0.0761322
0.0760838
0.0756317
0.0756169
0.0755836
0.075586
0.0755707
0.0755692
0.0755813
0.0755763
0.0756072
0.0756188
0.0754625
0.0752769
0.075362
0.075418
0.0754195
0.0754177
0.0754128
0.0753536
0.0752657
0.0754477
0.0754095
0.0751695
0.0752688
0.0752975
0.0752951
0.0752929
0.0752911
0.0752588
0.075156
0.075391
0.0753355
0.0751246
0.0752275
0.0752219
0.0752164
0.0752137
0.075214
0.0752149
0.0751074
0.0753129
0.0752433
0.0750699
0.0751749
0.075153
0.0751535
0.0751501
0.0751428
0.0751588
0.0750481
0.0752153
0.0751626
0.0750159
0.0751135
0.0750829
0.0750907
0.0750864
0.0750697
0.0750928
0.074988
0.075127
0.075101
0.0749751
0.07506
0.0750218
0.0750329
0.0750274
0.0750046
0.0750332
0.0749392
0.0750554
0.0750527
0.074945
0.0750172
0.0749734
0.0749846
0.0749775
0.0749509
0.0749822
0.0748984
0.0749942
0.0750125
0.0749198
0.0749806
0.0749338
0.0749435
0.0749344
0.0749043
0.0749348
0.0748594
0.0749374
0.0749796
0.0748979
0.0749476
0.0748994
0.0749061
0.0748942
0.0748608
0.0748881
0.0748195
0.0748824
0.074954
0.0748801
0.0749189
0.074869
0.0748712
0.0748557
0.0748187
0.0748412
0.0747781
0.0748284
0.0749359
0.0748674
0.0748951
0.0748428
0.0748387
0.0748185
0.0747775
0.0747936
0.0747343
0.0747741
0.0749259
0.0748602
0.0748764
0.0748206
0.0748084
0.0747821
0.074736
0.0747442
0.0746864
0.074717
0.0749248
0.0748593
0.0748629
0.0748019
0.0747796
0.0747453
0.0746926
0.0746912
0.0746326
0.0746547
0.0749338
0.0748658
0.0748553
0.0747867
0.0747519
0.0747072
0.0746455
0.0746325
0.0745707
0.0745844
0.0749545
0.0748813
0.0748545
0.0747751
0.0747247
0.0746663
0.0745928
0.0745656
0.0744979
0.0745027
0.0749884
0.0749076
0.0748613
0.0747672
0.0746974
0.0746214
0.074532
0.0744875
0.0744103
0.0744057
0.0750371
0.0749468
0.0748768
0.074763
0.074669
0.0745704
0.07446
0.0743936
0.0743027
0.0742874
0.075102
0.0750007
0.0749018
0.0747623
0.0746385
0.0745108
0.0743728
0.0742786
0.074168
0.0741401
0.0751831
0.0750708
0.074937
0.0747651
0.0746042
0.0744396
0.0742651
0.0741348
0.0739966
0.0739525
0.0752791
0.0751579
0.0749831
0.0747709
0.0745647
0.0743529
0.0741303
0.0739518
0.0737743
0.0737083
0.0753862
0.0752606
0.0750402
0.0747795
0.0745185
0.0742467
0.0739598
0.0737154
0.0734808
0.0733831
0.0754979
0.0753754
0.0751085
0.0747913
0.0744647
0.074117
0.0737433
0.0734057
0.0730851
0.0729387
0.075606
0.0754955
0.0751877
0.0748089
0.0744052
0.0739614
0.0734697
0.072996
0.0725391
0.0723105
0.0757021
0.0756115
0.0752782
0.0748381
0.0743464
0.0737821
0.0731282
0.0724502
0.0717647
0.0713846
0.0757797
0.0757148
0.0753813
0.0748914
0.0743057
0.0735939
0.0727178
0.0717273
0.0706358
0.0699246
0.0758384
0.0757996
0.0754979
0.0749879
0.0743161
0.0734316
0.0722524
0.0707791
0.0689521
0.0674294
0.0758828
0.0758641
0.0756309
0.0751669
0.0744546
0.0733926
0.0718282
0.06961
0.0664956
0.062419
0.075915
0.0759008
0.0757774
0.0754665
0.0748109
0.0735933
0.0715813
0.0681324
0.06324
0.0512502
0.076216
0.0762591
0.0759525
0.0758292
0.0757877
0.0757862
0.0758249
0.0759456
0.0762501
0.0762032
0.0756279
0.075609
0.0755806
0.0755824
0.0755672
0.0755656
0.0755778
0.0755733
0.0755993
0.075615
0.0754126
0.0752206
0.0753069
0.0753605
0.0753618
0.07536
0.0753552
0.0752985
0.0752093
0.0753978
0.0753796
0.0751401
0.0752405
0.075267
0.0752648
0.0752626
0.0752607
0.0752303
0.0751264
0.0753616
0.0753299
0.075126
0.0752312
0.0752252
0.0752204
0.0752176
0.0752172
0.0752183
0.0751084
0.075308
0.07525
0.0750864
0.0751934
0.0751721
0.0751731
0.0751696
0.0751616
0.0751768
0.0750642
0.0752226
0.075176
0.0750402
0.0751392
0.0751098
0.0751178
0.0751134
0.0750964
0.0751183
0.0750121
0.0751409
0.0751197
0.0750048
0.0750912
0.0750551
0.0750662
0.0750607
0.0750378
0.0750645
0.0749686
0.0750746
0.0750748
0.0749769
0.0750513
0.0750107
0.0750219
0.0750149
0.074988
0.0750168
0.0749303
0.0750171
0.075036
0.0749517
0.0750151
0.0749721
0.0749819
0.0749728
0.0749423
0.0749701
0.0748915
0.0749618
0.0750028
0.0749285
0.0749812
0.0749367
0.0749435
0.0749316
0.0748976
0.0749225
0.0748506
0.074907
0.0749759
0.0749092
0.0749511
0.0749044
0.0749067
0.074891
0.0748535
0.0748739
0.0748078
0.0748523
0.0749563
0.0748949
0.0749257
0.0748758
0.074872
0.0748516
0.07481
0.0748241
0.0747623
0.0747968
0.0749449
0.074886
0.0749051
0.074851
0.0748392
0.0748127
0.0747661
0.0747724
0.0747127
0.0747384
0.0749426
0.0748833
0.0748897
0.0748297
0.074808
0.0747734
0.0747201
0.0747171
0.0746571
0.0746748
0.0749507
0.0748881
0.0748803
0.0748121
0.0747779
0.0747328
0.0746707
0.0746563
0.0745935
0.0746035
0.0749707
0.0749023
0.074878
0.0747984
0.0747487
0.0746898
0.0746158
0.0745876
0.0745193
0.0745211
0.0750046
0.0749279
0.0748839
0.0747889
0.0747198
0.0746432
0.0745533
0.0745078
0.0744306
0.0744237
0.075054
0.074967
0.0748993
0.074784
0.0746905
0.0745911
0.0744801
0.074413
0.0743224
0.0743056
0.0751206
0.075022
0.0749253
0.0747837
0.0746599
0.0745313
0.0743926
0.0742977
0.0741879
0.0741591
0.0752046
0.0750947
0.074963
0.0747882
0.0746269
0.074461
0.0742857
0.0741546
0.0740175
0.0739732
0.0753045
0.0751858
0.0750131
0.0747975
0.0745901
0.0743767
0.0741529
0.0739737
0.0737977
0.0737322
0.0754162
0.0752937
0.0750759
0.0748115
0.0745484
0.0742746
0.0739861
0.0737409
0.0735083
0.0734121
0.0755315
0.0754136
0.0751511
0.0748309
0.0745012
0.0741507
0.0737751
0.0734367
0.0731189
0.0729752
0.0756397
0.0755367
0.0752377
0.0748577
0.0744497
0.0740019
0.0735077
0.0730336
0.0725812
0.0723572
0.0757295
0.0756506
0.075334
0.0748961
0.074398
0.0738274
0.0731703
0.0724928
0.0718153
0.0714435
0.0757926
0.0757435
0.0754374
0.0749525
0.0743562
0.073634
0.0727532
0.0717649
0.0706881
0.0699924
0.0758301
0.0758092
0.0755405
0.0750317
0.0743405
0.0734388
0.0722523
0.0707831
0.0689816
0.0674887
0.0758499
0.0758446
0.075625
0.0751399
0.0743935
0.0733063
0.0717302
0.069514
0.0664318
0.0623932
0.0758646
0.0758414
0.0756591
0.0752723
0.0745659
0.0733238
0.0712998
0.0678449
0.062969
0.050953
0.0765498
0.0765885
0.0762583
0.0761394
0.0760994
0.0760979
0.076135
0.0762515
0.0765796
0.0765372
0.0756886
0.0756426
0.075608
0.0756147
0.0755994
0.0755978
0.07561
0.0756007
0.0756329
0.0756758
0.0753486
0.0751334
0.0752193
0.0752742
0.075275
0.0752732
0.0752688
0.0752109
0.0751221
0.0753339
0.0752931
0.0750361
0.0751384
0.0751661
0.0751642
0.075162
0.0751598
0.0751283
0.0750224
0.0752751
0.0752416
0.0750192
0.0751239
0.0751201
0.075116
0.0751131
0.0751119
0.0751107
0.0750014
0.0752201
0.0751645
0.0749808
0.0750837
0.0750643
0.0750648
0.0750612
0.0750536
0.0750669
0.0749587
0.0751369
0.0750969
0.0749435
0.0750368
0.0750085
0.0750145
0.0750099
0.0749951
0.0750155
0.0749149
0.0750612
0.0750492
0.0749199
0.0750005
0.0749655
0.0749738
0.074968
0.0749481
0.074973
0.0748828
0.0750039
0.0750141
0.0749032
0.0749711
0.0749325
0.0749406
0.0749333
0.0749097
0.0749359
0.0748556
0.0749556
0.0749839
0.0748878
0.0749441
0.0749035
0.07491
0.0749007
0.0748737
0.0748986
0.0748266
0.0749083
0.0749577
0.0748731
0.0749186
0.0748766
0.0748803
0.0748682
0.0748378
0.0748597
0.0747942
0.0748598
0.0749369
0.0748609
0.0748963
0.0748523
0.0748515
0.0748358
0.0748017
0.0748192
0.0747585
0.0748104
0.0749221
0.0748526
0.0748783
0.074831
0.0748241
0.0748036
0.0747651
0.0747769
0.0747193
0.0747589
0.0749148
0.0748491
0.0748644
0.0748126
0.0747978
0.0747711
0.0747271
0.0747316
0.074675
0.0747041
0.0749163
0.0748516
0.0748552
0.0747971
0.0747724
0.0747375
0.0746865
0.0746819
0.0746239
0.0746442
0.0749281
0.0748615
0.0748517
0.0747849
0.0747477
0.0747022
0.0746418
0.0746262
0.0745642
0.0745767
0.074952
0.0748809
0.0748551
0.0747764
0.0747236
0.0746642
0.0745915
0.0745622
0.0744936
0.074498
0.0749902
0.074912
0.0748667
0.0747721
0.0746997
0.0746224
0.0745334
0.0744871
0.0744086
0.0744042
0.0750447
0.0749575
0.074888
0.0747727
0.0746757
0.0745753
0.0744648
0.0743968
0.0743043
0.0742899
0.0751172
0.07502
0.0749208
0.0747786
0.0746509
0.0745209
0.0743822
0.0742863
0.0741742
0.0741476
0.0752087
0.0751018
0.0749665
0.0747903
0.0746246
0.0744568
0.0742811
0.0741485
0.0740091
0.0739669
0.075318
0.0752042
0.0750266
0.0748086
0.0745961
0.0743802
0.0741554
0.073974
0.0737959
0.0737326
0.0754408
0.0753254
0.0751019
0.0748343
0.0745652
0.0742879
0.0739979
0.0737498
0.0735156
0.0734219
0.0755673
0.0754599
0.075193
0.0748692
0.0745323
0.0741769
0.0737992
0.0734572
0.0731391
0.0729987
0.0756824
0.0755957
0.0752998
0.0749172
0.0745001
0.0740451
0.0735482
0.0730703
0.0726202
0.0724016
0.0757694
0.0757152
0.0754211
0.0749847
0.074474
0.0738922
0.0732312
0.0725511
0.0718818
0.0715203
0.0758196
0.0758007
0.0755508
0.0750778
0.0744626
0.0737216
0.0728345
0.0718473
0.0707931
0.0701201
0.0758414
0.0758569
0.0756765
0.0751886
0.0744674
0.0735336
0.0723364
0.0708757
0.0691316
0.067694
0.0758321
0.0758631
0.0757308
0.0752591
0.0744672
0.0733301
0.0717348
0.0695348
0.066578
0.062696
0.0758102
0.0757797
0.0755789
0.075121
0.0743254
0.0730179
0.0709683
0.0675382
0.062871
0.0512948
0.0762681
0.0765481
0.0762131
0.0760925
0.0760548
0.0760533
0.0760882
0.0762062
0.0765388
0.0762553
0.0757017
0.0756871
0.0756252
0.0756277
0.0756142
0.0756126
0.075623
0.0756177
0.0756772
0.0756887
0.0755828
0.0753469
0.0754095
0.075458
0.0754599
0.075458
0.0754525
0.075401
0.0753355
0.075568
0.0755542
0.0752911
0.075376
0.0754041
0.075404
0.0754016
0.0753968
0.0753654
0.0752772
0.0755365
0.075458
0.0752392
0.0753255
0.0753289
0.0753263
0.0753234
0.0753199
0.0753126
0.0752226
0.0754366
0.0753357
0.0751614
0.0752443
0.0752347
0.0752344
0.075231
0.075224
0.0752281
0.07514
0.0753086
0.0752344
0.075093
0.0751685
0.0751513
0.0751538
0.0751494
0.0751375
0.0751477
0.075065
0.0751995
0.0751598
0.075044
0.0751101
0.0750865
0.0750899
0.075084
0.0750685
0.0750827
0.0750085
0.0751153
0.075102
0.0750074
0.0750627
0.0750338
0.0750367
0.075029
0.0750109
0.0750268
0.0749613
0.0750451
0.075054
0.074975
0.0750201
0.0749877
0.074989
0.0749792
0.0749584
0.0749738
0.0749153
0.0749809
0.0750142
0.0749462
0.0749822
0.0749469
0.0749458
0.0749333
0.0749093
0.0749218
0.0748683
0.0749201
0.074983
0.0749221
0.0749496
0.0749116
0.0749066
0.0748906
0.0748628
0.0748711
0.0748203
0.0748618
0.0749605
0.0749033
0.0749225
0.0748813
0.0748706
0.0748498
0.0748174
0.0748207
0.0747706
0.0748039
0.0749471
0.0748909
0.0749014
0.0748554
0.0748374
0.0748102
0.0747716
0.0747685
0.0747178
0.0747438
0.0749439
0.0748864
0.0748866
0.0748337
0.0748064
0.0747708
0.0747244
0.074713
0.0746603
0.0746794
0.0749521
0.074891
0.074879
0.0748167
0.0747775
0.0747311
0.0746747
0.0746529
0.0745957
0.0746082
0.0749736
0.0749067
0.0748798
0.0748048
0.0747503
0.0746898
0.0746205
0.0745858
0.0745217
0.0745271
0.0750107
0.0749359
0.0748903
0.0747987
0.0747248
0.0746461
0.0745599
0.0745089
0.0744348
0.0744323
0.0750657
0.0749815
0.0749122
0.0747989
0.0747006
0.0745985
0.0744902
0.0744184
0.0743304
0.0743185
0.0751408
0.0750465
0.0749472
0.0748064
0.0746774
0.0745454
0.0744083
0.0743096
0.0742021
0.0741784
0.0752369
0.0751339
0.0749973
0.0748219
0.074655
0.0744848
0.0743101
0.0741759
0.0740412
0.0740022
0.0753524
0.0752446
0.0750644
0.0748466
0.0746332
0.0744147
0.0741903
0.0740084
0.0738356
0.0737757
0.0754807
0.075376
0.0751499
0.074882
0.0746124
0.0743327
0.0740426
0.0737953
0.0735678
0.0734778
0.0756092
0.0755183
0.0752542
0.0749311
0.0745942
0.074237
0.0738593
0.07352
0.073211
0.0730753
0.0757191
0.0756525
0.075375
0.0749987
0.0745827
0.0741269
0.0736309
0.073159