/*--------------------------------*- C++ -*----------------------------------*\
| =========                 |                                                 |
| \\      /  F ield         | OpenFOAM: The Open Source CFD Toolbox           |
|  \\    /   O peration     | Version:  4.1                                   |
|   \\  /    A nd           | Web:      www.OpenFOAM.org                      |
|    \\/     M anipulation  |                                                 |
\*---------------------------------------------------------------------------*/
FoamFile
{
    version     2.0;
    format      ascii;
    class       surfaceScalarField;
    location    "1200";
    object      phi;
}
// * * * * * * * * * * * * * * * * * * * * * * * * * * * * * * * * * * * * * //

dimensions      [0 3 -1 0 0 0 0];

internalField   nonuniform List<scalar> 
33700
(
4.94582e-05
0.000901171
4.93934e-05
2.30502e-05
0.000971666
5.47671e-05
8.40141e-06
0.000957731
5.69433e-05
3.13291e-06
0.000948517
5.67767e-05
8.30956e-08
0.000946062
5.70125e-05
-2.97304e-06
0.00094607
5.7012e-05
-8.25816e-06
0.000948536
5.67752e-05
-2.29278e-05
0.000957752
5.69394e-05
-4.93607e-05
0.000971691
5.47601e-05
0.000901215
4.94338e-05
3.11824e-05
0.000838972
3.1067e-05
2.34909e-05
0.000941792
3.7617e-05
1.33961e-05
0.000928323
3.95562e-05
6.12795e-06
0.000916671
3.91671e-05
2.01365e-07
0.000912451
3.95905e-05
-5.73425e-06
0.000912465
3.95938e-05
-1.30258e-05
0.000916721
3.91581e-05
-2.31164e-05
0.000928375
3.95122e-05
-3.07893e-05
0.000941838
3.75615e-05
0.00083932
3.11194e-05
1.6114e-05
0.000807006
1.5904e-05
1.6731e-05
0.000919785
2.14456e-05
1.18137e-05
0.00091068
2.26167e-05
6.07743e-06
0.00090007
2.2393e-05
3.49255e-07
0.000895334
2.29001e-05
-5.37559e-06
0.000895358
2.28876e-05
-1.11715e-05
0.000900184
2.23853e-05
-1.61422e-05
0.000910803
2.25881e-05
-1.55801e-05
0.000919908
2.14024e-05
0.000807799
1.59547e-05
8.73028e-06
0.000789926
8.39704e-06
1.21966e-05
0.000904396
1.19719e-05
9.67279e-06
0.000901078
1.21742e-05
5.26224e-06
0.000891966
1.25599e-05
5.61777e-07
0.000886907
1.31725e-05
-4.21847e-06
0.00088696
1.32219e-05
-8.74569e-06
0.000892184
1.25678e-05
-1.134e-05
0.000901316
1.21181e-05
-8.03443e-06
0.000904673
1.19578e-05
0.000791324
8.45342e-06
5.21758e-06
0.00077998
4.76657e-06
9.38595e-06
0.000893081
7.18336e-06
8.40381e-06
0.000895795
6.29775e-06
4.7496e-06
0.000888126
7.52401e-06
6.97446e-07
0.00088281
8.17635e-06
-3.14059e-06
0.000882641
8.18232e-06
-6.96272e-06
0.000888453
7.57798e-06
-8.32585e-06
0.000896309
6.39211e-06
-4.35576e-06
0.000893496
7.22724e-06
0.000782213
4.76558e-06
4.04367e-06
0.000772517
3.44704e-06
7.05296e-06
0.000884864
5.23007e-06
7.2915e-06
0.000892289
3.28532e-06
4.50671e-06
0.000885756
5.16804e-06
9.03997e-07
0.000880631
5.79105e-06
-2.19952e-06
0.000879951
5.80118e-06
-5.3309e-06
0.000886284
5.30921e-06
-5.57647e-06
0.000893191
3.37412e-06
-2.97384e-06
0.000885414
5.49099e-06
0.000775855
3.39138e-06
4.0678e-06
0.000765284
3.17961e-06
5.27758e-06
0.000879422
4.24103e-06
6.41e-06
0.000889709
1.4494e-06
4.45755e-06
0.000883501
4.2029e-06
1.38867e-06
0.000879113
4.57881e-06
-1.43887e-06
0.000878033
4.73667e-06
-3.8402e-06
0.000884316
4.36194e-06
-3.26953e-06
0.000890877
1.74057e-06
-2.64838e-06
0.000879848
4.94858e-06
0.000770001
3.20941e-06
4.77674e-06
0.000757022
3.48823e-06
3.92539e-06
0.000875782
4.48385e-06
6.0455e-06
0.000887183
3.90509e-07
4.63802e-06
0.000881
3.88987e-06
1.94123e-06
0.000877787
3.99912e-06
-5.3987e-07
0.000876364
4.12571e-06
-2.63102e-06
0.00088227
4.11283e-06
-1.88507e-06
0.000889007
1.11033e-06
-2.43257e-06
0.00087539
4.99919e-06
0.000764267
3.30278e-06
5.18295e-06
0.000748467
3.35808e-06
4.55821e-06
0.000871902
4.48121e-06
6.25335e-06
0.000884885
5.73885e-07
4.94372e-06
0.000878225
4.05113e-06
2.74475e-06
0.00087617
3.77959e-06
5.63771e-07
0.000874606
3.899e-06
-1.69679e-06
0.00088024
4.25565e-06
-1.55569e-06
0.000887548
1.29115e-06
-1.81607e-06
0.000870582
5.05369e-06
0.000759335
3.11442e-06
5.15372e-06
0.000740653
2.63041e-06
6.22869e-06
0.00086623
4.55982e-06
6.97077e-06
0.000882541
1.56205e-06
5.43237e-06
0.000875278
4.44246e-06
3.83468e-06
0.000874011
3.7101e-06
1.82242e-06
0.000872758
3.81071e-06
-6.9415e-07
0.000878233
4.47847e-06
-1.2402e-06
0.000886369
1.69158e-06
-1.04975e-06
0.000865026
5.34366e-06
0.000755414
2.8668e-06
5.75037e-06
0.000732503
2.35835e-06
7.55103e-06
0.000859423
4.961e-06
8.06221e-06
0.000879989
1.9949e-06
6.34643e-06
0.000872274
4.6714e-06
5.13432e-06
0.000871587
3.58417e-06
3.2625e-06
0.000870923
3.65279e-06
5.55828e-07
0.00087627
4.61885e-06
-2.16113e-07
0.00088545
1.65287e-06
-4.69014e-07
0.000859582
5.67108e-06
0.000752005
2.93301e-06
6.77088e-06
0.000723399
2.28581e-06
8.63748e-06
0.00085227
5.23757e-06
9.49975e-06
0.000877099
1.97837e-06
7.78299e-06
0.000869223
4.71689e-06
6.75902e-06
0.000869138
3.42034e-06
4.96887e-06
0.000869217
3.44124e-06
2.10504e-06
0.000874435
4.64721e-06
1.29351e-06
0.000884789
1.43157e-06
1.80274e-07
0.000854901
5.76628e-06
0.000749098
3.07851e-06
8.1266e-06
0.000712981
2.2417e-06
9.85199e-06
0.000845166
5.32736e-06
1.13336e-05
0.000873803
1.76406e-06
9.77357e-06
0.000866092
4.64069e-06
8.84915e-06
0.000866786
3.22485e-06
7.11918e-06
0.000867711
3.18183e-06
4.03104e-06
0.000872864
4.60928e-06
3.15257e-06
0.000884467
1.1613e-06
1.00023e-06
0.000851337
5.68672e-06
0.000746864
3.22367e-06
9.85054e-06
0.000700946
2.13318e-06
1.15629e-05
0.000838128
5.27607e-06
1.37159e-05
0.000870078
1.52416e-06
1.23718e-05
0.000862876
4.51326e-06
1.16366e-05
0.000864458
3.01385e-06
9.86733e-06
0.000866495
2.93541e-06
6.44284e-06
0.000871714
4.52729e-06
5.32822e-06
0.000884631
9.11417e-07
2.0635e-06
0.000849033
5.53905e-06
0.000745567
3.35007e-06
1.20726e-05
0.000686828
1.99496e-06
1.40289e-05
0.000830956
5.16805e-06
1.68857e-05
0.000865836
1.33918e-06
1.58302e-05
0.00085952
4.36665e-06
1.52505e-05
0.000862136
2.85806e-06
1.33796e-05
0.000865608
2.71117e-06
9.51557e-06
0.000871104
4.42969e-06
7.91849e-06
0.000885461
7.30813e-07
3.41795e-06
0.000848086
5.41909e-06
0.000745528
3.44642e-06
1.49638e-05
0.00066992
1.89563e-06
1.7482e-05
0.000823342
5.04973e-06
2.11071e-05
0.000860924
1.24425e-06
2.0419e-05
0.000855934
4.23377e-06
1.99259e-05
0.000859816
2.77285e-06
1.78996e-05
0.000865061
2.53255e-06
1.34652e-05
0.000871153
4.34548e-06
1.11232e-05
0.000887151
6.18667e-07
5.11439e-06
0.00084872
5.34821e-06
0.000747067
3.56429e-06
1.8704e-05
0.000649279
1.8895e-06
2.2222e-05
0.000814799
4.9827e-06
2.66954e-05
0.000855099
1.31278e-06
2.64493e-05
0.000851978
4.16545e-06
2.60201e-05
0.000857421
2.78759e-06
2.37398e-05
0.000864859
2.44496e-06
1.85628e-05
0.000871988
4.30564e-06
1.51658e-05
0.000889927
5.90024e-07
7.27253e-06
0.000851268
5.31975e-06
0.000750546
3.78348e-06
2.3494e-05
0.000623669
2.07209e-06
2.86249e-05
0.000804575
5.05419e-06
3.40641e-05
0.000848039
1.5851e-06
3.43418e-05
0.000847457
4.21023e-06
3.39369e-05
0.000854838
2.95643e-06
3.12914e-05
0.000864983
2.48901e-06
2.51561e-05
0.00087374
4.35149e-06
2.03235e-05
0.000894044
6.87795e-07
1.00534e-05
0.000856146
5.36874e-06
0.000756431
4.15743e-06
2.95342e-05
0.000591522
2.57088e-06
3.71861e-05
0.000791505
5.38149e-06
4.37401e-05
0.000839325
2.12673e-06
4.46152e-05
0.000842109
4.4435e-06
4.42e-05
0.000851888
3.33643e-06
4.10615e-05
0.000865366
2.72573e-06
3.36909e-05
0.000876537
4.54438e-06
2.69728e-05
0.000899745
9.91868e-07
1.3674e-05
0.000863872
5.55043e-06
0.000765348
4.74762e-06
3.69841e-05
0.000550941
3.55799e-06
4.85003e-05
0.00077383
6.12564e-06
5.63591e-05
0.000828379
3.05731e-06
5.792e-05
0.00083556
4.96127e-06
5.74793e-05
0.000848297
4.0062e-06
5.37091e-05
0.000865873
3.23693e-06
4.47667e-05
0.000880494
4.96017e-06
3.56012e-05
0.000907299
1.5886e-06
1.84227e-05
0.000875079
5.95156e-06
0.000778121
5.64052e-06
4.58946e-05
0.000499729
5.28128e-06
6.31606e-05
0.000749021
7.5124e-06
7.26901e-05
0.000814304
4.51745e-06
7.50574e-05
0.000827273
5.89402e-06
7.46145e-05
0.000843637
5.07966e-06
7.01021e-05
0.000866217
4.14433e-06
5.92197e-05
0.000885646
5.70718e-06
4.68757e-05
0.00091706
2.56189e-06
2.47038e-05
0.000890551
6.68197e-06
0.000795856
6.96069e-06
5.60473e-05
0.000435633
8.01543e-06
8.16017e-05
0.000713606
9.83429e-06
9.36042e-05
0.000795591
6.68636e-06
9.69899e-05
0.000816446
7.41908e-06
9.66544e-05
0.000837242
6.70884e-06
9.13775e-05
0.000865865
5.60826e-06
7.81959e-05
0.000891866
6.94067e-06
6.1755e-05
0.000929423
4.05893e-06
3.31058e-05
0.000911276
7.9081e-06
0.00082007
8.8846e-06
6.66976e-05
0.000357035
1.18711e-05
0.000103826
0.000663096
1.33589e-05
0.000119911
0.000769599
9.8855e-06
0.000124838
0.000801718
9.77984e-06
0.000124915
0.000828044
9.10207e-06
0.000119043
0.000863862
7.85647e-06
0.0001033
0.000898705
8.88579e-06
8.16744e-05
0.000944744
6.28891e-06
4.45428e-05
0.000938528
9.86541e-06
0.000852942
1.16654e-05
7.62329e-05
0.000264172
1.66086e-05
0.000128632
0.000592544
1.8135e-05
0.00015199
0.000731799
1.44247e-05
0.000159839
0.000780508
1.33448e-05
0.000161043
0.000814272
1.25526e-05
0.000155123
0.000858592
1.11733e-05
0.000136852
0.000905117
1.18442e-05
0.000108842
0.000963189
9.55141e-06
6.04329e-05
0.000974034
1.28922e-05
0.000897697
1.56738e-05
8.17974e-05
0.000161039
2.13203e-05
0.000152673
0.000497934
2.37227e-05
0.00018894
0.00067495
2.05684e-05
0.000203086
0.000747706
1.86428e-05
0.000207076
0.000792775
1.74932e-05
0.000202327
0.000847382
1.5946e-05
0.000182219
0.000908995
1.6218e-05
0.000146799
0.000984339
1.42601e-05
8.33511e-05
0.00101999
1.74792e-05
0.00095959
2.14558e-05
7.83178e-05
5.91319e-05
2.35768e-05
0.000169222
0.000378342
2.86786e-05
0.000227225
0.000588465
2.84725e-05
0.000254837
0.000693533
2.65521e-05
0.000265524
0.00075744
2.46396e-05
0.000264475
0.000825764
2.2657e-05
0.000244457
0.000906505
2.24996e-05
0.000201351
0.0010065
2.09371e-05
0.000117546
0.00107948
2.431e-05
0.00104735
2.97787e-05
5.62264e-05
-1.94418e-05
2.23343e-05
0.000168168
0.000235395
3.09966e-05
0.000259424
0.000459614
3.75898e-05
0.000312436
0.000602418
3.80988e-05
0.000338146
0.000696486
3.52396e-05
0.000346237
0.000785558
3.21104e-05
0.000330938
0.000890519
3.12769e-05
0.000282518
0.00102466
3.02524e-05
0.00017374
0.00115383
3.44228e-05
0.00117899
4.20941e-05
1.09492e-05
-5.77406e-05
2.73278e-05
0.000140275
6.81975e-05
3.78604e-05
0.000273519
0.000276225
5.01383e-05
0.000368704
0.000453213
5.40162e-05
0.000425565
0.000589171
5.04492e-05
0.000454302
0.000711557
4.52557e-05
0.000453186
0.000848524
4.31045e-05
0.000406397
0.00102891
4.25276e-05
0.000269561
0.00124205
4.86037e-05
0.00138869
5.98691e-05
3.59645e-06
-8.93198e-05
2.79767e-05
0.000104616
-7.92674e-05
4.64247e-05
0.000252654
6.01391e-05
6.8031e-05
0.000394242
0.000233711
7.78988e-05
0.000508139
0.00040138
7.38751e-05
0.000586357
0.000568406
6.49126e-05
0.000626753
0.000748551
5.95473e-05
0.00059825
0.000998771
5.86189e-05
0.000477591
0.00129412
6.85648e-05
0.00177963
8.66446e-05
8.00027e-05
1.17808e-06
-0.000170483
0.000179902
1.98584e-05
-0.000199031
0.000285871
5.61689e-05
-0.000102019
0.000409671
8.46127e-05
2.52628e-05
0.00056024
9.4053e-05
0.000156714
0.000713097
8.84647e-05
0.000327034
0.000852493
7.93968e-05
0.000529706
0.000905352
7.59022e-05
0.000869959
0.000893443
8.64309e-05
0.00121957
0.000121868
0.00255119
5.48208e-05
0.000971586
2.29798e-05
2.08331e-05
0.00106797
2.07781e-05
6.46695e-06
0.00104988
2.14184e-05
2.25823e-06
0.0010394
2.1578e-05
6.12998e-08
0.00103749
2.17087e-05
-2.14257e-06
0.0010375
2.17084e-05
-6.3704e-06
0.00103942
2.15764e-05
-2.07861e-05
0.00104993
2.14137e-05
-5.49524e-05
0.00106813
2.07915e-05
0.000971461
2.30189e-05
3.7698e-05
0.000941611
2.33258e-05
2.34462e-05
0.0010965
2.33151e-05
1.312e-05
0.0010767
2.30375e-05
5.83801e-06
0.00106283
2.29886e-05
1.7017e-07
0.00105956
2.31669e-05
-5.50727e-06
0.00105958
2.31697e-05
-1.28181e-05
0.00106288
2.29858e-05
-2.31574e-05
0.00107675
2.30175e-05
-3.73075e-05
0.00109649
2.33418e-05
0.000941898
2.33729e-05
2.16289e-05
0.000919426
1.64506e-05
1.83461e-05
0.00110314
1.80724e-05
1.18024e-05
0.00108861
1.72424e-05
5.71895e-06
0.00107433
1.69645e-05
3.60437e-07
0.00107066
1.71418e-05
-5.03153e-06
0.00107073
1.71161e-05
-1.1193e-05
0.00107446
1.6961e-05
-1.78777e-05
0.00108877
1.72558e-05
-2.12824e-05
0.00110315
1.81481e-05
0.000920111
1.64591e-05
1.22846e-05
0.000903799
1.1735e-05
1.48032e-05
0.00109817
1.44216e-05
9.91782e-06
0.00109181
1.38597e-05
4.8081e-06
0.00107848
1.35093e-05
5.51727e-07
0.00107433
1.3745e-05
-3.73304e-06
0.00107442
1.38081e-05
-8.97638e-06
0.00107876
1.35129e-05
-1.41044e-05
0.00109226
1.37576e-05
-1.17964e-05
0.00109834
1.44648e-05
0.000905006
1.17645e-05
7.57251e-06
0.000892129
8.86696e-06
1.23775e-05
0.00108883
1.17215e-05
8.82539e-06
0.0010907
1.0955e-05
4.4481e-06
0.00107913
1.12611e-05
8.30513e-07
0.00107457
1.15551e-05
-2.93306e-06
0.00107496
1.14151e-05
-7.46364e-06
0.00107962
1.12562e-05
-1.12448e-05
0.00109133
1.11046e-05
-6.84874e-06
0.00108937
1.18044e-05
0.000894115
8.81251e-06
5.88583e-06
0.000883344
6.35706e-06
1.1347e-05
0.00107818
1.04343e-05
8.11204e-06
0.00108845
8.78801e-06
4.30915e-06
0.0010787
9.40683e-06
1.17534e-06
0.00107372
9.79473e-06
-2.28216e-06
0.00107483
9.40479e-06
-6.24231e-06
0.00107948
9.42515e-06
-9.86275e-06
0.00108938
8.9591e-06
-4.77414e-06
0.00107912
1.06633e-05
0.000886521
6.21839e-06
5.25452e-06
0.000877213
4.07787e-06
1.12779e-05
0.00106629
1.01336e-05
7.76982e-06
0.00108587
7.55812e-06
4.31775e-06
0.00107826
8.12497e-06
1.52854e-06
0.00107262
8.48975e-06
-1.5015e-06
0.00107428
8.33903e-06
-5.2478e-06
0.00107949
8.12044e-06
-9.35634e-06
0.00108783
7.42054e-06
-3.85637e-06
0.0010682
1.03896e-05
0.000881593
4.29272e-06
5.89859e-06
0.000872697
2.13764e-06
1.20034e-05
0.00105421
1.04817e-05
7.84745e-06
0.00108377
6.68955e-06
4.51067e-06
0.00107805
7.46402e-06
2.05143e-06
0.00107143
7.68284e-06
-7.17085e-07
0.00107368
7.52821e-06
-4.24135e-06
0.00107969
7.46704e-06
-8.24963e-06
0.00108668
6.29893e-06
-3.59973e-06
0.00105897
9.60467e-06
0.0008779
3.4107e-06
6.34649e-06
0.000867583
2.1661e-06
1.09106e-05
0.00104523
8.9356e-06
7.96318e-06
0.00108161
5.7261e-06
4.92806e-06
0.00107811
7.06785e-06
2.70921e-06
0.0010707
6.76876e-06
1.29315e-07
0.00107345
6.73969e-06
-3.0249e-06
0.00108
7.13907e-06
-6.07158e-06
0.00108579
5.25743e-06
-3.38778e-06
0.0010535
7.86426e-06
0.000874104
3.53787e-06
6.96506e-06
0.000860148
3.14855e-06
8.79343e-06
0.00104178
6.23658e-06
7.79928e-06
0.00107966
4.55757e-06
5.5395e-06
0.00107804
6.82298e-06
3.4887e-06
0.00107061
5.89249e-06
1.09538e-06
0.00107358
6.12265e-06
-1.67368e-06
0.00108041
6.882e-06
-4.03905e-06
0.00108543
4.45915e-06
-3.34932e-06
0.00105181
6.37155e-06
0.000869917
3.71961e-06
8.0753e-06
0.000850928
3.55598e-06
8.91817e-06
0.00104038
5.56482e-06
8.27816e-06
0.00107843
3.90608e-06
6.46258e-06
0.00107791
6.66118e-06
4.52169e-06
0.00107087
5.30866e-06
2.2022e-06
0.00107398
5.61204e-06
-5.0508e-07
0.00108113
6.64341e-06
-3.18041e-06
0.0010858
3.98473e-06
-3.20482e-06
0.0010513
6.23148e-06
0.000866206
3.45333e-06
9.25857e-06
0.000840561
3.44639e-06
1.00193e-05
0.00103933
5.57855e-06
9.34762e-06
0.00107763
3.49994e-06
7.75107e-06
0.00107775
6.51417e-06
5.88313e-06
0.00107126
4.93719e-06
3.58294e-06
0.00107457
5.19795e-06
7.73762e-07
0.00108219
6.44188e-06
-2.28669e-06
0.00108673
3.60093e-06
-2.70235e-06
0.00105122
6.2811e-06
0.000863595
2.99967e-06
1.0548e-05
0.000829246
3.05682e-06
1.16574e-05
0.00103781
5.78006e-06
1.0966e-05
0.00107688
3.25201e-06
9.49945e-06
0.00107752
6.37715e-06
7.69263e-06
0.00107164
4.68814e-06
5.33632e-06
0.0010753
4.84667e-06
2.33694e-06
0.00108352
6.31097e-06
-1.1117e-06
0.00108809
3.27846e-06
-1.89086e-06
0.00105139
6.31969e-06
0.000862414
2.52377e-06
1.20587e-05
0.000816802
2.56165e-06
1.36785e-05
0.00103558
5.93047e-06
1.3154e-05
0.00107584
3.12845e-06
1.18238e-05
0.00107713
6.28034e-06
1.0033e-05
0.00107209
4.39995e-06
7.59347e-06
0.00107615
4.56121e-06
4.33557e-06
0.0010851
6.23295e-06
4.78848e-07
0.00108988
3.002e-06
-8.31918e-07
0.00105198
6.28315e-06
0.000862801
2.1401e-06
1.39376e-05
0.000802763
2.13466e-06
1.61971e-05
0.00103252
6.0072e-06
1.60224e-05
0.00107433
3.06127e-06
1.4852e-05
0.00107648
6.21751e-06
1.30766e-05
0.00107254
4.21701e-06
1.0517e-05
0.00107713
4.32532e-06
6.91546e-06
0.001087
6.15937e-06
2.59364e-06
0.00109219
2.76868e-06
4.13529e-07
0.00105343
6.16336e-06
0.000864752
1.91773e-06
1.63344e-05
0.000786532
1.82537e-06
1.94646e-05
0.00102838
6.09731e-06
1.97672e-05
0.00107223
3.07097e-06
1.87917e-05
0.00107553
6.19034e-06
1.7042e-05
0.00107294
4.15472e-06
1.42962e-05
0.00107829
4.14316e-06
1.02363e-05
0.00108933
6.10987e-06
5.29545e-06
0.00109517
2.59604e-06
1.91405e-06
0.00105612
6.05002e-06
0.000868391
1.84593e-06
1.94127e-05
0.000767379
1.65884e-06
2.37438e-05
0.00102281
6.25117e-06
2.46572e-05
0.00106944
3.2202e-06
2.39182e-05
0.00107424
6.22732e-06
2.21817e-05
0.00107331
4.18372e-06
1.91765e-05
0.00107973
4.04148e-06
1.45106e-05
0.00109221
6.11043e-06
8.72895e-06
0.00109905
2.51158e-06
3.83222e-06
0.00106036
5.98867e-06
0.000874112
1.90072e-06
2.33561e-05
0.000744405
1.71613e-06
2.93823e-05
0.00101531
6.55217e-06
3.1035e-05
0.00106585
3.54686e-06
3.05782e-05
0.00107255
6.38113e-06
2.88406e-05
0.00107366
4.36749e-06
2.54833e-05
0.00108155
4.05279e-06
2.00296e-05
0.00109586
6.18234e-06
1.31289e-05
0.00110411
2.54363e-06
6.31649e-06
0.00106655
6.0023e-06
0.000882487
2.1048e-06
2.83592e-05
0.000716521
2.11875e-06
3.67498e-05
0.00100523
7.08553e-06
3.93173e-05
0.00106133
4.1037e-06
3.92098e-05
0.00107041
6.71648e-06
3.74581e-05
0.00107402
4.75566e-06
3.36405e-05
0.00108389
4.22723e-06
2.71829e-05
0.00110052
6.36657e-06
1.87944e-05
0.00111079
2.72212e-06
9.53486e-06
0.00107525
6.12055e-06
0.000894267
2.50709e-06
3.45878e-05
0.000682459
3.05184e-06
4.6276e-05
0.000991727
7.96546e-06
5.00302e-05
0.00105565
5.00595e-06
5.03585e-05
0.00106775
7.3145e-06
4.85923e-05
0.0010744
5.41768e-06
4.42055e-05
0.0010869
4.63715e-06
3.64922e-05
0.00110648
6.7285e-06
2.61363e-05
0.00111964
3.10204e-06
1.37145e-05
0.00108723
6.40438e-06
0.000910452
3.17403e-06
4.21572e-05
0.000640867
4.73297e-06
5.8519e-05
0.000973463
9.43164e-06
6.38392e-05
0.00104844
6.42678e-06
6.47069e-05
0.0010645
8.30256e-06
6.29576e-05
0.00107478
6.46729e-06
5.79112e-05
0.00109073
5.38485e-06
4.86473e-05
0.00111411
7.3599e-06
3.57261e-05
0.00113137
3.77374e-06
1.91814e-05
0.00110351
6.94838e-06
0.000932386
4.21277e-06
5.10854e-05
0.000590367
7.44387e-06
7.4039e-05
0.000948534
1.18249e-05
8.15225e-05
0.00103908
8.58705e-06
8.30975e-05
0.0010605
9.86293e-06
8.14709e-05
0.00107507
8.06499e-06
7.57393e-05
0.00109547
6.62214e-06
6.46195e-05
0.0011238
8.38842e-06
4.83983e-05
0.0011468
4.86537e-06
2.64351e-05
0.00112552
7.87485e-06
0.000961934
5.77667e-06
6.11499e-05
0.00052954
1.15611e-05
9.30804e-05
0.000914524
1.54509e-05
0.00010392
0.00102632
1.18211e-05
0.000106563
0.00105539
1.22666e-05
0.00010531
0.00107501
1.04347e-05
9.90261e-05
0.00110105
8.57198e-06
8.58078e-05
0.00113591
1.00085e-05
6.53956e-05
0.00116695
6.55583e-06
3.62424e-05
0.00115517
9.37183e-06
0.00100176
8.08266e-06
7.16278e-05
0.000457222
1.73115e-05
0.000115409
0.000868236
2.06544e-05
0.000131727
0.00100797
1.647e-05
0.000136306
0.0010483
1.58753e-05
0.000135993
0.00107401
1.38848e-05
0.000129605
0.00110711
1.15291e-05
0.000114254
0.00115064
1.24855e-05
8.8636e-05
0.00119304
9.10231e-06
4.9817e-05
0.00119517
1.17284e-05
0.00105583
1.14307e-05
8.10678e-05
0.000373298
2.41902e-05
0.000139923
0.000805525
2.75906e-05
0.000165333
0.000980098
2.30496e-05
0.000173751
0.00103729
2.12558e-05
0.000175498
0.00107091
1.88701e-05
0.00017003
0.00111264
1.59018e-05
0.00015303
0.0011677
1.61807e-05
0.000121308
0.00122619
1.28509e-05
6.9455e-05
0.00124921
1.53057e-05
0.00113049
1.62637e-05
8.67878e-05
0.000279651
3.0453e-05
0.000163601
0.000721775
3.56299e-05
0.000204008
0.000936173
3.20079e-05
0.000220349
0.00101833
2.91948e-05
0.000226438
0.00106348
2.60044e-05
0.000223907
0.00111569
2.21643e-05
0.000206824
0.00118579
2.15133e-05
0.00016873
0.00126704
1.82047e-05
9.89287e-05
0.00132276
2.0581e-05
0.00123604
2.31662e-05
8.46234e-05
0.000184365
3.3013e-05
0.000181084
0.00061388
4.24443e-05
0.000244869
0.000866906
4.30914e-05
0.000276766
0.000983938
4.06162e-05
0.000291906
0.00104749
3.61212e-05
0.000296155
0.00111278
3.08096e-05
0.00028277
0.00120168
2.8811e-05
0.000240244
0.00131435
2.54958e-05
0.000148235
0.00142102
2.81988e-05
0.00139349
3.2895e-05
6.86705e-05
0.000111673
3.13743e-05
0.000186126
0.000486663
4.76358e-05
0.000282801
0.000764567
5.5824e-05
0.000342063
0.000923185
5.55366e-05
0.000375228
0.00101543
4.93865e-05
0.000393312
0.00109846
4.15318e-05
0.000391521
0.0012091
3.75098e-05
0.000351384
0.00136287
3.41794e-05
0.000233354
0.00154955
3.81208e-05
0.00164061
4.61204e-05
4.96202e-05
7.04914e-05
1.95658e-05
0.000174722
0.000358549
4.94546e-05
0.000304677
0.000634966
6.76953e-05
0.000406173
0.000827697
7.19148e-05
0.000475787
0.000955198
6.45211e-05
0.000522285
0.00106405
5.28524e-05
0.000548912
0.00119654
4.55129e-05
0.000523542
0.00140507
4.18101e-05
0.000421872
0.00167059
4.92129e-05
0.00208652
6.26213e-05
6.91992e-05
-1.70396e-05
1.95801e-05
0.000180394
3.0366e-05
0.000236862
0.000317979
5.84462e-05
0.000495118
0.000453648
6.80372e-05
0.000708619
0.000574588
6.26819e-05
0.000865642
0.0006772
4.98235e-05
0.00100009
0.000774789
3.98378e-05
0.00113851
0.000806773
3.59376e-05
0.00141306
0.00080188
4.94423e-05
0.00171248
7.84087e-05
0.00293186
5.69935e-05
0.000957661
8.32009e-06
2.14703e-05
0.00104989
6.40461e-06
6.34841e-06
0.00103024
6.29043e-06
2.11515e-06
0.00101951
6.29211e-06
5.4292e-08
0.00101746
6.3022e-06
-2.0144e-06
0.00101747
6.30105e-06
-6.26682e-06
0.00101953
6.29007e-06
-2.14547e-05
0.00103031
6.28861e-06
-5.72121e-05
0.00105013
6.41413e-06
0.000957472
8.33245e-06
3.96191e-05
0.000928161
1.31944e-05
2.31501e-05
0.00107671
1.29474e-05
1.27354e-05
0.0010511
1.25802e-05
5.8107e-06
0.00103688
1.25204e-05
1.5298e-07
0.00103373
1.25268e-05
-5.52238e-06
0.00103377
1.25241e-05
-1.24853e-05
0.00103695
1.25195e-05
-2.29e-05
0.00105114
1.25914e-05
-3.90976e-05
0.00107665
1.30013e-05
0.000928521
1.32202e-05
2.27969e-05
0.000910346
1.14577e-05
1.75175e-05
0.00108857
1.14761e-05
1.12564e-05
0.00106363
1.09584e-05
5.7206e-06
0.0010485
1.08567e-05
3.4677e-07
0.00104534
1.08798e-05
-5.06401e-06
0.0010454
1.08744e-05
-1.0683e-05
0.00104866
1.08552e-05
-1.70374e-05
0.00106376
1.09737e-05
-2.23476e-05
0.00108856
1.15401e-05
0.000911148
1.14792e-05
1.23963e-05
0.000900517
9.16086e-06
1.41409e-05
0.00109181
9.4299e-06
9.28697e-06
0.0010735
8.82726e-06
4.64277e-06
0.00105793
8.70732e-06
5.41002e-07
0.00105439
8.77836e-06
-3.59119e-06
0.00105455
8.77853e-06
-8.36514e-06
0.00105824
8.7038e-06
-1.34744e-05
0.0010738
8.82977e-06
-1.18921e-05
0.00109196
9.47762e-06
0.000901814
9.20078e-06
6.72279e-06
0.000895166
7.49135e-06
1.17515e-05
0.00109036
8.14003e-06
8.18314e-06
0.00108049
7.53207e-06
4.15114e-06
0.00106563
7.58897e-06
8.32088e-07
0.0010615
7.75846e-06
-2.6452e-06
0.00106171
7.72824e-06
-6.83551e-06
0.00106611
7.57031e-06
-1.05313e-05
0.00108109
7.50832e-06
-5.94532e-06
0.00109102
8.15618e-06
0.000896999
7.67726e-06
3.84524e-06
0.000891759
5.92245e-06
1.01153e-05
0.0010873
7.23131e-06
7.32438e-06
0.00108566
6.40375e-06
3.95501e-06
0.00107181
6.59715e-06
1.17812e-06
0.00106723
6.84071e-06
-1.87324e-06
0.00106741
6.75679e-06
-5.33992e-06
0.00107246
6.54385e-06
-8.01865e-06
0.00108644
6.28148e-06
-2.74287e-06
0.00108925
7.15523e-06
0.000894108
6.36396e-06
2.27317e-06
0.000888867
4.70767e-06
8.71523e-06
0.00108439
6.6071e-06
6.51131e-06
0.00109018
5.25913e-06
3.83303e-06
0.00107706
5.56529e-06
1.51575e-06
0.0010722
5.84916e-06
-9.83199e-07
0.00107249
5.77093e-06
-3.85832e-06
0.00107795
5.5137e-06
-6.41474e-06
0.00109131
5.1227e-06
-9.38868e-07
0.00108771
6.45729e-06
0.000892262
5.19884e-06
1.58212e-06
0.000885481
3.96139e-06
7.87074e-06
0.00108233
6.2721e-06
5.96075e-06
0.00109453
4.26133e-06
3.93144e-06
0.00108181
4.7541e-06
1.97713e-06
0.0010768
5.05797e-06
-1.53577e-07
0.0010772
4.96714e-06
-2.50824e-06
0.00108305
4.73897e-06
-5.30331e-06
0.00109624
4.17613e-06
-1.0583e-07
0.00108625
5.88044e-06
0.000891214
4.35432e-06
2.16017e-06
0.000881878
3.63687e-06
7.27736e-06
0.00108035
5.82657e-06
5.65867e-06
0.00109853
3.37546e-06
4.34419e-06
0.00108606
4.16202e-06
2.53629e-06
0.00108095
4.446e-06
6.28812e-07
0.00108152
4.34648e-06
-1.14606e-06
0.00108778
4.21266e-06
-3.78769e-06
0.00110084
3.31793e-06
2.22876e-08
0.00108507
5.24398e-06
0.000890746
4.03115e-06
3.62516e-06
0.000877866
3.56875e-06
6.73835e-06
0.00107855
4.95244e-06
5.56072e-06
0.00110174
2.55012e-06
4.9997e-06
0.00108975
3.7204e-06
3.25361e-06
0.0010847
3.92034e-06
1.51005e-06
0.00108556
3.86189e-06
2.14062e-07
0.00109214
3.83862e-06
-2.13524e-06
0.00110508
2.5845e-06
-8.05146e-08
0.00108482
4.58412e-06
0.000890408
3.97947e-06
4.65747e-06
0.0008732
3.5994e-06
6.86837e-06
0.00107748
4.46359e-06
5.94639e-06
0.0011046
2.00072e-06
5.91363e-06
0.00109305
3.42344e-06
4.2493e-06
0.0010882
3.50644e-06
2.58581e-06
0.0010894
3.46585e-06
1.52616e-06
0.0010963
3.56638e-06
-8.1656e-07
0.00110933
2.09094e-06
3.18081e-07
0.00108565
4.27817e-06
0.000890287
3.89636e-06
5.46558e-06
0.000867639
3.57717e-06
7.57974e-06
0.00107672
4.25023e-06
6.83242e-06
0.0011072
1.67951e-06
7.13919e-06
0.00109604
3.24168e-06
5.59303e-06
0.00109152
3.19163e-06
3.94863e-06
0.00109312
3.15394e-06
2.97127e-06
0.00110037
3.3727e-06
5.14366e-07
0.00111367
1.73431e-06
1.06785e-06
0.00108727
4.11122e-06
0.000890582
3.77642e-06
6.32486e-06
0.000860945
3.45924e-06
8.7885e-06
0.00107587
4.20202e-06
8.24571e-06
0.0011095
1.52196e-06
8.79032e-06
0.00109876
3.13911e-06
7.35664e-06
0.0010947
2.9712e-06
5.67277e-06
0.00109677
2.90856e-06
4.67665e-06
0.00110445
3.24938e-06
2.01823e-06
0.00111816
1.46311e-06
2.019e-06
0.00108959
4.01706e-06
0.000891496
3.63359e-06
7.4744e-06
0.000852738
3.32642e-06
1.03449e-05
0.00107475
4.20223e-06
1.01957e-05
0.00111135
1.45025e-06
1.09908e-05
0.00110119
3.08778e-06
9.62084e-06
0.0010977
2.79688e-06
7.86831e-06
0.00110039
2.71794e-06
6.75769e-06
0.00110863
3.18692e-06
3.7985e-06
0.00112288
1.25538e-06
3.1054e-06
0.0010926
3.97302e-06
0.000893265
3.48198e-06
9.09285e-06
0.000842594
3.21467e-06
1.24988e-05
0.00107316
4.2214e-06
1.28057e-05
0.00111269
1.44111e-06
1.38526e-05
0.0011033
3.07953e-06
1.25611e-05
0.00110056
2.67993e-06
1.06887e-05
0.00110404
2.57686e-06
9.34296e-06
0.00111299
3.16268e-06
5.95519e-06
0.00112795
1.10084e-06
4.35658e-06
0.00109643
3.94553e-06
0.000896182
3.36286e-06
1.12805e-05
0.000830017
3.14833e-06
1.54378e-05
0.00107084
4.28525e-06
1.62688e-05
0.00111344
1.51314e-06
1.7567e-05
0.0011051
3.11976e-06
1.63717e-05
0.00110329
2.64018e-06
1.43111e-05
0.00110778
2.48759e-06
1.25896e-05
0.00111767
3.17672e-06
8.60253e-06
0.00113354
1.00623e-06
5.86867e-06
0.00110128
3.9418e-06
0.000900598
3.30388e-06
1.41775e-05
0.000814356
3.16735e-06
1.93367e-05
0.00106752
4.42831e-06
2.08215e-05
0.0011135
1.69658e-06
2.23896e-05
0.00110655
3.22678e-06
2.12853e-05
0.00110592
2.68236e-06
1.8964e-05
0.00111169
2.46484e-06
1.67031e-05
0.00112281
3.24342e-06
1.19063e-05
0.00113987
9.86039e-07
7.74678e-06
0.00110746
3.97683e-06
0.00090693
3.321e-06
1.79462e-05
0.000794824
3.32409e-06
2.45325e-05
0.0010628
4.707e-06
2.67777e-05
0.00111278
2.03593e-06
2.86365e-05
0.00110766
3.43561e-06
2.76228e-05
0.00110849
2.83981e-06
2.49502e-05
0.00111591
2.53451e-06
2.19543e-05
0.00112862
3.38122e-06
1.60836e-05
0.00114724
1.06099e-06
1.01162e-05
0.00111537
4.06629e-06
0.000915723
3.43388e-06
2.27446e-05
0.000770503
3.71496e-06
3.13587e-05
0.00105611
5.18132e-06
3.45114e-05
0.00111117
2.57768e-06
3.67022e-05
0.00110841
3.79388e-06
3.57837e-05
0.00111103
3.15302e-06
3.26611e-05
0.00112054
2.73204e-06
2.86992e-05
0.00113535
3.61839e-06
2.14175e-05
0.001156
1.25579e-06
1.31283e-05
0.00112555
4.23771e-06
0.000927685
3.67961e-06
2.87235e-05
0.000740374
4.47607e-06
4.02083e-05
0.00104667
5.93854e-06
4.44877e-05
0.00110852
3.39459e-06
4.70713e-05
0.00110879
4.36809e-06
4.62697e-05
0.00111359
3.67688e-06
4.26049e-05
0.00112575
3.1099e-06
3.74153e-05
0.00114328
3.99915e-06
2.83013e-05
0.00116661
1.60796e-06
1.70092e-05
0.00113874
4.52306e-06
0.000943764
4.10988e-06
3.59567e-05
0.000703402
5.76384e-06
5.15181e-05
0.00103343
7.12181e-06
5.72622e-05
0.00110462
4.60077e-06
6.03353e-05
0.00110879
5.25466e-06
5.97144e-05
0.0011162
4.49231e-06
5.54436e-05
0.00113168
3.74256e-06
4.87372e-05
0.00115277
4.58854e-06
3.72491e-05
0.0011797
2.18178e-06
2.20587e-05
0.00115589
4.99173e-06
0.000965255
4.78702e-06
4.43873e-05
0.000658693
7.78044e-06
6.56986e-05
0.00101503
8.92817e-06
7.34636e-05
0.00109912
6.33475e-06
7.72008e-05
0.00110834
6.58256e-06
7.69096e-05
0.00111886
5.71229e-06
7.20522e-05
0.00113844
4.7329e-06
6.3541e-05
0.0011642
5.47549e-06
4.90177e-05
0.00119604
3.06027e-06
2.87441e-05
0.00117832
5.72727e-06
0.000993977
5.80667e-06
5.37921e-05
0.000605771
1.07038e-05
8.29622e-05
0.000989762
1.15612e-05
9.37352e-05
0.0010914
8.7847e-06
9.84915e-05
0.00110734
8.52509e-06
9.88391e-05
0.00112148
7.48598e-06
9.35973e-05
0.00114605
6.21727e-06
8.30802e-05
0.00117797
6.77634e-06
6.4731e-05
0.00121661
4.35087e-06
3.77558e-05
0.00120784
6.84102e-06
0.00103253
7.29855e-06
6.36523e-05
0.000544811
1.46333e-05
0.000103162
0.000955692
1.5226e-05
0.000118606
0.0010803
1.21374e-05
0.000125125
0.00110543
1.1289e-05
0.000126721
0.00112379
9.99715e-06
0.000121646
0.00115431
8.36043e-06
0.000109164
0.00119432
8.63282e-06
8.61318e-05
0.00124257
6.18495e-06
5.02444e-05
0.001247
8.47488e-06
0.00108479
9.42642e-06
7.30254e-05
0.000476649
1.93418e-05
0.000125407
0.000910923
1.99901e-05
0.000148248
0.00106393
1.6595e-05
0.000158047
0.00110178
1.51218e-05
0.000162034
0.00112524
1.34556e-05
0.000158307
0.00116263
1.13329e-05
0.000144498
0.00121315
1.11767e-05
0.000116119
0.00127514
8.68132e-06
6.82891e-05
0.0012994
1.0749e-05
0.00115699
1.23681e-05
8.05494e-05
0.000402714
2.38545e-05
0.000147978
0.000853515
2.5622e-05
0.000182184
0.00103942
2.23253e-05
0.000198075
0.00109483
2.02707e-05
0.00020652
0.00112479