/*--------------------------------*- C++ -*----------------------------------*\
| =========                 |                                                 |
| \\      /  F ield         | OpenFOAM: The Open Source CFD Toolbox           |
|  \\    /   O peration     | Version:  4.1                                   |
|   \\  /    A nd           | Web:      www.OpenFOAM.org                      |
|    \\/     M anipulation  |                                                 |
\*---------------------------------------------------------------------------*/
FoamFile
{
    version     2.0;
    format      ascii;
    class       volVectorField;
    location    "1200";
    object      U;
}
// * * * * * * * * * * * * * * * * * * * * * * * * * * * * * * * * * * * * * //

dimensions      [0 1 -1 0 0 0 0];

internalField   nonuniform List<vector> 
12000
(
(0.0919669 -0.00968108 0.00967676)
(0.0965677 -0.00180823 0.0106438)
(0.0959723 -0.00135172 0.011055)
(0.0955809 -0.000558491 0.0110761)
(0.0954836 -0.000150471 0.0111055)
(0.0954838 0.000134028 0.0111055)
(0.0955814 0.000543178 0.0110764)
(0.0959727 0.00133789 0.0110559)
(0.0965682 0.00179472 0.0106436)
(0.091971 0.00968518 0.00967677)
(0.0862188 -0.00380766 0.00379826)
(0.0952116 -0.00252204 0.00524639)
(0.0937989 -0.00195263 0.00567978)
(0.0927226 -0.000883741 0.00565869)
(0.0923869 -0.000277724 0.00569313)
(0.0923877 0.000237222 0.00569315)
(0.0927255 0.000844743 0.0056581)
(0.0938019 0.00191377 0.00567891)
(0.0952146 0.00248062 0.00524873)
(0.0862312 0.00379896 0.0038025)
(0.082301 0.000786274 -0.000803278)
(0.0934423 -0.00254937 0.000186297)
(0.0921091 -0.00163633 0.000448443)
(0.0908631 -0.00079702 0.000449805)
(0.0903827 -0.000299237 0.000486966)
(0.0903866 0.000227959 0.000486591)
(0.0908709 0.000728329 0.000448572)
(0.0921155 0.00157227 0.000445196)
(0.0934477 0.00249326 0.000184073)
(0.0823526 -0.000808419 -0.000799974)
(0.0796126 0.00270046 -0.00272701)
(0.0912628 -0.00250282 -0.0023442)
(0.0905648 -0.00116981 -0.00226891)
(0.0895333 -0.000669092 -0.00219412)
(0.089023 -0.000300373 -0.00214437)
(0.0890169 0.000189943 -0.00214729)
(0.0895487 0.000568916 -0.00219601)
(0.0905924 0.00107724 -0.00227175)
(0.0912853 0.00242569 -0.00234534)
(0.0797184 -0.00273397 -0.00271562)
(0.0782564 0.00319073 -0.00322762)
(0.0897478 -0.00240239 -0.00329965)
(0.0897296 -0.000780532 -0.00338585)
(0.0888721 -0.00062467 -0.00325569)
(0.0883558 -0.000303251 -0.00319438)
(0.0883789 0.000150167 -0.00317954)
(0.0889003 0.000470276 -0.00325574)
(0.0897365 0.000650668 -0.00340813)
(0.0897809 0.00230958 -0.00329502)
(0.0784329 -0.00324407 -0.00321592)
(0.0775415 0.00308548 -0.00313545)
(0.0887338 -0.00225687 -0.00354698)
(0.0892971 -0.00045385 -0.00380877)
(0.0886512 -0.000619298 -0.00356528)
(0.0881186 -0.000308418 -0.00350065)
(0.088071 9.80215e-05 -0.00352656)
(0.0886919 0.000406039 -0.00356686)
(0.089401 0.000274228 -0.00379508)
(0.0887819 0.00213416 -0.00353204)
(0.0778135 -0.0031606 -0.00312118)
(0.0769103 0.00275533 -0.00282707)
(0.0881831 -0.00211645 -0.00337348)
(0.0891065 -0.000196399 -0.00386018)
(0.0884673 -0.000637267 -0.00357407)
(0.0879816 -0.000321766 -0.00350874)
(0.0878811 2.58699e-05 -0.00355472)
(0.0885365 0.000359412 -0.00357556)
(0.0891913 -4.5665e-05 -0.00386617)
(0.0882249 0.00195304 -0.00334723)
(0.077301 -0.00286241 -0.00280594)
(0.0761393 0.00235908 -0.0024598)
(0.0876538 -0.0020013 -0.00306963)
(0.0888525 -1.89475e-05 -0.00377716)
(0.0882542 -0.000685389 -0.0034249)
(0.0878535 -0.000337731 -0.00336367)
(0.0877436 -6.84808e-05 -0.00340035)
(0.088346 0.000312895 -0.00342736)
(0.0890025 -0.000269682 -0.00375636)
(0.0877576 0.00178728 -0.00300145)
(0.076729 -0.00252996 -0.00244862)
(0.0752975 0.00198389 -0.00212313)
(0.0875426 -0.00195992 -0.00252175)
(0.0886125 8.15061e-06 -0.00354715)
(0.0879728 -0.000760279 -0.00320159)
(0.0877322 -0.00036532 -0.00310798)
(0.0875572 -0.000195771 -0.00318973)
(0.0881307 0.000263142 -0.00320459)
(0.0888298 -0.000391311 -0.0035391)
(0.0873899 0.00163303 -0.00258153)
(0.0761821 -0.00223741 -0.00212434)
(0.0744727 0.00166187 -0.00185149)
(0.0869496 -0.00190716 -0.00216401)
(0.0883758 -9.70009e-05 -0.00326991)
(0.0876771 -0.000862961 -0.00295779)
(0.0875166 -0.00041192 -0.00286835)
(0.0873735 -0.000350757 -0.00296223)
(0.0879258 0.000194912 -0.0029619)
(0.0886896 -0.000480637 -0.00330712)
(0.0867792 0.00145278 -0.00229165)
(0.0757283 -0.00198784 -0.00183606)
(0.0736753 0.00134692 -0.00160037)
(0.0862895 -0.00187042 -0.00194562)
(0.0881323 -0.000220111 -0.00303393)
(0.0873775 -0.000997507 -0.00273794)
(0.0872862 -0.000489502 -0.00266573)
(0.0871813 -0.000526539 -0.00276324)
(0.0877249 9.78237e-05 -0.00273471)
(0.0885865 -0.000604276 -0.00310536)
(0.0862122 0.00124826 -0.00208041)
(0.0753608 -0.00176667 -0.00156792)
(0.0728171 0.00104808 -0.0013814)
(0.0855741 -0.00185364 -0.00178606)
(0.0878637 -0.00036046 -0.00283774)
(0.0870774 -0.00116741 -0.0025442)
(0.0870289 -0.000611416 -0.00250027)
(0.0870042 -0.000730906 -0.00258569)
(0.0875343 -3.62477e-05 -0.0025342)
(0.0885068 -0.00075482 -0.0029253)
(0.0856978 0.00102221 -0.00190589)
(0.0750444 -0.00158725 -0.00133329)
(0.071847 0.000761452 -0.00119632)
(0.0848599 -0.00187297 -0.00165527)
(0.0875522 -0.000533804 -0.00267269)
(0.0867674 -0.00137837 -0.00237576)
(0.0867955 -0.000787717 -0.00234917)
(0.0868411 -0.000977791 -0.00242907)
(0.0873574 -0.000221439 -0.00236221)
(0.0884555 -0.00093269 -0.00276262)
(0.0852814 0.000779534 -0.0017698)
(0.0747814 -0.00145026 -0.00113344)
(0.0707347 0.000476268 -0.00104301)
(0.0841605 -0.0019487 -0.00153894)
(0.0872028 -0.000763633 -0.0025273)
(0.0864499 -0.00164093 -0.00223053)
(0.086565 -0.00103492 -0.00221268)
(0.0867033 -0.00128572 -0.00229034)
(0.0872191 -0.000469773 -0.00221192)
(0.0884436 -0.00114533 -0.00261506)
(0.0849906 0.000518974 -0.00164923)
(0.0745979 -0.0013526 -0.000962336)
(0.0694413 0.000178609 -0.000914729)
(0.0834551 -0.00209925 -0.00143278)
(0.0868067 -0.00107483 -0.00239343)
(0.0861225 -0.0019798 -0.00210475)
(0.0863267 -0.00137318 -0.00209535)
(0.0865979 -0.00166895 -0.00216675)
(0.087129 -0.000797862 -0.00207812)
(0.0884893 -0.00140721 -0.00247708)
(0.0848249 0.000230261 -0.00153225)
(0.0745256 -0.00129116 -0.000814372)
(0.0679088 -0.000146661 -0.000803613)
(0.0827243 -0.0023442 -0.00133401)
(0.0863542 -0.00149165 -0.00226539)
(0.0857786 -0.00242305 -0.00199337)
(0.0860989 -0.00182817 -0.00198726)
(0.0865267 -0.00215075 -0.00205451)
(0.0870984 -0.00122836 -0.00195807)
(0.0886114 -0.00174116 -0.00234762)
(0.0848029 -0.000101201 -0.00142382)
(0.0745946 -0.00126371 -0.000683401)
(0.0660574 -0.000514746 -0.000702366)
(0.0819308 -0.00270675 -0.00123828)
(0.0858231 -0.00204485 -0.00213844)
(0.0854055 -0.00300289 -0.00189133)
(0.0858655 -0.00243458 -0.00188487)
(0.08649 -0.00276425 -0.001949)
(0.0871404 -0.00178971 -0.00184763)
(0.0888299 -0.00217425 -0.00222469)
(0.0849555 -0.000493769 -0.00132416)
(0.074838 -0.00127319 -0.000562849)
(0.0637786 -0.000940761 -0.000601693)
(0.081013 -0.00321539 -0.00113891)
(0.085188 -0.00277508 -0.00200457)
(0.0849865 -0.00376147 -0.00179407)
(0.0856198 -0.00323415 -0.00178245)
(0.0864877 -0.00354949 -0.00184444)
(0.087268 -0.00251944 -0.00174125)
(0.0891699 -0.00273856 -0.00210426)
(0.0853179 -0.000970798 -0.00123022)
(0.0752969 -0.00132668 -0.00044656)
(0.0609353 -0.00143786 -0.000490753)
(0.0798848 -0.00390518 -0.00102215)
(0.0844109 -0.00373635 -0.00185604)
(0.0845005 -0.00475095 -0.00169415)
(0.0853484 -0.00427913 -0.00167335)
(0.0865155 -0.00455864 -0.00173439)
(0.0874936 -0.00346613 -0.00163291)
(0.0896592 -0.00347595 -0.00198034)
(0.0859385 -0.00156365 -0.00113696)
(0.0760248 -0.00143515 -0.000328092)
(0.0573562 -0.00201401 -0.000354907)
(0.0784023 -0.00481389 -0.000874905)
(0.0834451 -0.00499465 -0.00168197)
(0.0839167 -0.00603583 -0.00158202)
(0.0850299 -0.00563567 -0.0015509)
(0.0865654 -0.00585919 -0.00161242)
(0.0878307 -0.00469341 -0.0015164)
(0.0903171 -0.00444152 -0.00184348)
(0.0868733 -0.00231398 -0.00103722)
(0.0770939 -0.00161308 -0.000198993)
(0.0528365 -0.00266517 -0.000173088)
(0.0763583 -0.00597418 -0.000680512)
(0.0822218 -0.0066235 -0.00146924)
(0.0831901 -0.00769603 -0.00144506)
(0.0846296 -0.00738528 -0.00140625)
(0.0866179 -0.00753781 -0.00146759)
(0.0882885 -0.00628771 -0.00138195)
(0.0911775 -0.00571239 -0.00168499)
(0.0881929 -0.00327793 -0.000922643)
(0.0785985 -0.00188252 -4.95849e-05)
(0.0471481 -0.00336094 7.96812e-05)
(0.0734585 -0.00739734 -0.000414732)
(0.0806341 -0.0086946 -0.00119916)
(0.0822579 -0.00982711 -0.00126605)
(0.0840957 -0.00962671 -0.00122707)
(0.0866342 -0.00970529 -0.00128692)
(0.0888651 -0.00836552 -0.00121572)
(0.0922798 -0.0073973 -0.0014918)
(0.0899873 -0.00453611 -0.00077822)
(0.0806703 -0.002276 0.000133966)
(0.0400812 -0.00402135 0.000418621)
(0.0693112 -0.00904516 -4.4148e-05)
(0.0784821 -0.0112546 -0.000845019)
(0.0810184 -0.012534 -0.00102236)
(0.0833449 -0.012479 -0.000995705)
(0.0865446 -0.0125048 -0.0010514)
(0.0895362 -0.0110856 -0.00099872)
(0.0936648 -0.00965466 -0.00124699)
(0.092368 -0.0062106 -0.000588322)
(0.0834888 -0.00284677 0.000369289)
(0.031528 -0.00448642 0.000830267)
(0.0634117 -0.0107708 0.00044726)
(0.0754476 -0.0142625 -0.000367145)
(0.0793036 -0.0159133 -0.000676877)
(0.0822471 -0.016086 -0.000687605)
(0.0862288 -0.0161218 -0.000738789)
(0.0902358 -0.0146688 -0.0007058)
(0.0953631 -0.0127235 -0.00092641)
(0.0954859 -0.00849165 -0.000328084)
(0.0873297 -0.0036735 0.000683648)
(0.0216131 -0.00448031 0.00123657)
(0.0552324 -0.0122449 0.00102435)
(0.070923 -0.0174925 0.00025686)
(0.0767596 -0.0199948 -0.000181516)
(0.0805761 -0.0206139 -0.000264183)
(0.0854839 -0.0207967 -0.000317044)
(0.0908241 -0.0194231 -0.000303772)
(0.097383 -0.0169685 -0.000496815)
(0.0995489 -0.0117005 3.95171e-05)
(0.0925903 -0.00491385 0.00111286)
(0.0108544 -0.00354374 0.00139553)
(0.0444304 -0.0128478 0.00152538)
(0.0640862 -0.0203907 0.00103324)
(0.0727556 -0.024621 0.000545868)
(0.0779454 -0.026234 0.000341274)
(0.0839785 -0.0268581 0.000252211)
(0.09101 -0.0257952 0.000247757)
(0.0996225 -0.0229673 8.57992e-05)
(0.1048 -0.0163812 0.00056623)
(0.100067 -0.00679176 0.00170785)
(0.000533932 -0.000859878 0.00133563)
(0.0309271 -0.0116316 0.001693)
(0.0536036 -0.022024 0.00181807)
(0.0659909 -0.0292428 0.00157119)
(0.0735471 -0.0329413 0.00125748)
(0.0811791 -0.0346629 0.00105214)
(0.0903578 -0.0343824 0.000998778)
(0.101898 -0.0316422 0.000874636)
(0.11163 -0.0236233 0.0013252)
(0.110817 -0.0100277 0.002572)
(-0.00387539 0.0019126 0.00169714)
(0.0167523 -0.007655 0.00218668)
(0.038976 -0.0210031 0.00281286)
(0.0549243 -0.0327812 0.00290343)
(0.0659368 -0.0404323 0.00256925)
(0.0759754 -0.0446537 0.00218372)
(0.0877496 -0.0461028 0.00201824)
(0.103247 -0.0444242 0.00191648)
(0.119745 -0.0354629 0.00238999)
(0.128736 -0.0152354 0.00377669)
(-0.00701479 -0.000235132 0.000310238)
(-0.00143466 -0.00515275 0.001948)
(0.017712 -0.0169311 0.00410972)
(0.0367921 -0.0322813 0.00506479)
(0.0525988 -0.04586 0.00477099)
(0.0668224 -0.0557315 0.00401813)
(0.0823515 -0.061715 0.00348561)
(0.103333 -0.0635861 0.00327769)
(0.129281 -0.0565458 0.0038684)
(0.156109 -0.0285087 0.0056213)
(-0.0128827 -0.00442859 -0.00216966)
(-0.0152169 -0.0141261 -0.00244081)
(-0.00496075 -0.0231646 0.000420092)
(0.0109185 -0.0336879 0.00418882)
(0.028281 -0.0480392 0.00632861)
(0.0467792 -0.0640026 0.00657287)
(0.0664424 -0.0796433 0.00588843)
(0.0955882 -0.0897114 0.00523106)
(0.128698 -0.101425 0.00551844)
(0.217359 -0.0471162 0.00820586)
(0.0965642 -0.0106478 0.00180142)
(0.101391 -0.00136408 0.00135883)
(0.100949 -0.00122118 0.00146165)
(0.100672 -0.000458846 0.00143562)
(0.100627 -0.000112745 0.00144961)
(0.100628 0.000100885 0.00144956)
(0.100673 0.000448205 0.00143534)
(0.100951 0.0012125 0.00146077)
(0.101398 0.00135527 0.00136037)
(0.0965685 0.0107008 0.00180699)
(0.0951993 -0.0052544 0.00250738)
(0.108436 -0.00242231 0.00241147)
(0.1062 -0.00200893 0.00243882)
(0.104989 -0.000803308 0.00238666)
(0.104747 -0.000247221 0.0024219)
(0.104748 0.000213447 0.00242252)
(0.104993 0.000770901 0.00238611)
(0.106206 0.00197426 0.00243486)
(0.108448 0.00237041 0.00241006)
(0.0951958 0.00529049 0.00251252)
(0.0934173 -0.000201475 0.00252424)
(0.111019 -0.00288097 0.0028578)
(0.109052 -0.00169946 0.0028412)
(0.107456 -0.000691238 0.00278017)
(0.107075 -0.000282851 0.0028219)
(0.107076 0.000211609 0.00281778)
(0.107463 0.000624305 0.00277932)
(0.109061 0.00163783 0.00284212)
(0.111019 0.00282868 0.00286239)
(0.0934588 0.000243921 0.00252739)
(0.0912181 0.00231977 0.00246275)
(0.110562 -0.00304235 0.0030058)
(0.109481 -0.00121238 0.00303962)
(0.107992 -0.000572647 0.00299149)
(0.107576 -0.0002963 0.00303838)
(0.107593 0.000184846 0.00305049)
(0.108013 0.000469488 0.00299144)
(0.109499 0.00112649 0.00302325)
(0.110564 0.00296997 0.00300878)
(0.091308 -0.00229125 0.00246281)
(0.0896724 0.00326546 0.00235466)
(0.109339 -0.00302641 0.00298009)
(0.109142 -0.000838881 0.0030102)
(0.107938 -0.000557203 0.00307216)
(0.107505 -0.000318132 0.0031204)
(0.1075 0.000158803 0.00309457)
(0.10797 0.0004081 0.00307226)
(0.109224 0.000707311 0.00304083)
(0.109372 0.00293681 0.00298095)
(0.0898268 -0.0032952 0.00234328)
(0.0886137 0.00349607 0.0021928)
(0.108384 -0.00308873 0.00300089)
(0.108939 -0.000539692 0.00294787)
(0.10785 -0.00059609 0.0030368)
(0.107395 -0.000341288 0.00309897)
(0.107475 0.000115699 0.00306792)
(0.107915 0.000406715 0.00304645)
(0.108979 0.000367749 0.00295424)
(0.108459 0.00296474 0.00302931)
(0.0888664 -0.00360119 0.00217215)
(0.0880019 0.00329595 0.00201291)
(0.107212 -0.00307013 0.00294608)
(0.108699 -0.000347444 0.00284122)
(0.107849 -0.000672106 0.00298419)
(0.10732 -0.000342393 0.00303185)
(0.107469 3.73535e-05 0.00305574)
(0.107943 0.000413607 0.0029904)
(0.108855 0.000113055 0.00284878)
(0.107342 0.00293679 0.00302659)
(0.0883629 -0.00347804 0.00201616)
(0.0873925 0.00295875 0.00184908)
(0.106091 -0.00314312 0.00298227)
(0.108522 -0.000243045 0.00272751)
(0.107822 -0.000764023 0.00292974)
(0.107216 -0.00033786 0.00294927)
(0.107396 -7.26505e-05 0.00297113)
(0.107971 0.000409383 0.00295055)
(0.108736 -8.69575e-05 0.00275477)
(0.106319 0.0027645 0.00288086)
(0.0879655 -0.00316743 0.0018918)
(0.087186 0.00236732 0.00175167)
(0.104744 -0.00276084 0.00256512)
(0.108238 -0.000242704 0.00262559)
(0.107813 -0.000850109 0.00287958)
(0.107087 -0.000339456 0.00279041)
(0.107357 -0.000205331 0.00285908)
(0.107991 0.000385188 0.00291116)
(0.108604 -0.00025141 0.00265975)
(0.105477 0.00238497 0.00252652)
(0.0876824 -0.00277239 0.0017837)
(0.0864446 0.00196139 0.00163134)
(0.104288 -0.00233471 0.00209684)
(0.108042 -0.000219481 0.0025322)
(0.107807 -0.000946074 0.00283462)
(0.107056 -0.000350983 0.00263754)
(0.107342 -0.000353646 0.00274391)
(0.108014 0.00035085 0.00284906)
(0.108547 -0.000421531 0.0025744)
(0.105235 0.00209453 0.00227572)
(0.0871904 -0.00250443 0.00165522)
(0.0855784 0.00168733 0.00150756)
(0.104087 -0.00226138 0.00195729)
(0.107894 -0.000249843 0.00243628)
(0.107798 -0.00108715 0.00277682)
(0.107064 -0.000389144 0.0025149)
(0.107373 -0.000525233 0.00262998)
(0.108069 0.000312581 0.00276863)
(0.108549 -0.000573998 0.0024729)
(0.105142 0.00197641 0.00221819)
(0.0867786 -0.00232103 0.0015222)
(0.0845848 0.00145849 0.0013766)
(0.10399 -0.00232961 0.00193316)
(0.107801 -0.000321375 0.00233365)
(0.107785 -0.00126651 0.00270277)
(0.107109 -0.000463151 0.00242154)
(0.107424 -0.000727125 0.00251966)
(0.10816 0.000244019 0.00268174)
(0.108618 -0.000733929 0.00236382)
(0.10512 0.00186023 0.00218014)
(0.0864568 -0.00218308 0.00139244)
(0.0835045 0.00123833 0.00124378)
(0.103872 -0.00245724 0.00193097)
(0.107731 -0.0004447 0.00223652)
(0.107768 -0.00148352 0.00262096)
(0.107145 -0.0005879 0.00233425)
(0.107492 -0.000967465 0.00241202)
(0.108282 0.00013165 0.00260203)
(0.108734 -0.000912277 0.00225757)
(0.105128 0.00172258 0.00214146)
(0.0862621 -0.00209085 0.00127328)
(0.0823311 0.00100575 0.00111354)
(0.103684 -0.00260675 0.00191127)
(0.107644 -0.000632377 0.00214944)
(0.107737 -0.00174757 0.00254082)
(0.107184 -0.000774732 0.00223809)
(0.107571 -0.0012534 0.00231346)
(0.108427 -3.99013e-05 0.0025268)
(0.10889 -0.00111849 0.00215845)
(0.105156 0.00154548 0.00208937)
(0.0862239 -0.00202419 0.00117037)
(0.0810188 0.000751279 0.000995194)
(0.103424 -0.00278873 0.00187572)
(0.10752 -0.000895811 0.00206985)
(0.107686 -0.00207198 0.00246372)
(0.107233 -0.00104013 0.00216076)
(0.107662 -0.0016002 0.00222197)
(0.108599 -0.000285654 0.00245135)
(0.109091 -0.00136683 0.00206862)
(0.105245 0.00132313 0.00202657)
(0.0863467 -0.00197297 0.00108475)
(0.079521 0.000466028 0.00089384)
(0.103071 -0.00302841 0.00183323)
(0.107341 -0.00125483 0.00199898)
(0.107607 -0.0024756 0.00239058)
(0.107274 -0.00140822 0.00209873)
(0.107767 -0.00202721 0.00213846)
(0.108808 -0.00062296 0.00237992)
(0.109353 -0.00167278 0.00198885)
(0.105448 0.00105401 0.00196827)
(0.0866186 -0.00194189 0.00101704)
(0.0777725 0.000139135 0.000812438)
(0.102594 -0.00334833 0.00179151)
(0.107099 -0.00173616 0.00194693)
(0.107496 -0.00298641 0.00232636)
(0.107313 -0.0019056 0.00204867)
(0.107896 -0.00255902 0.00206697)
(0.109065 -0.00107524 0.00231601)
(0.109692 -0.00205531 0.00192172)
(0.105789 0.000722947 0.0019176)
(0.0870767 -0.00193846 0.000969468)
(0.0756887 -0.00024135 0.000758789)
(0.101956 -0.00377815 0.00176071)
(0.106783 -0.0023741 0.00191525)
(0.107349 -0.00363865 0.00227794)
(0.107349 -0.00256817 0.00201849)
(0.108056 -0.00322852 0.00201093)
(0.109387 -0.00167401 0.00226213)
(0.110133 -0.00254093 0.00187095)
(0.106302 0.000309101 0.00187782)
(0.0877685 -0.00196997 0.000945606)
(0.0731781 -0.000693441 0.000745054)
(0.101094 -0.00434472 0.00174838)
(0.106382 -0.00320938 0.00190772)
(0.107159 -0.00447529 0.00225266)
(0.107385 -0.00344102 0.00201305)
(0.108261 -0.00407876 0.00197643)
(0.109797 -0.00246078 0.00222379)
(0.110708 -0.00316395 0.00184226)
(0.107033 -0.00021386 0.00185289)
(0.0887605 -0.00204348 0.000951348)
(0.0701184 -0.0012271 0.000788699)
(0.0999425 -0.00507688 0.00176789)
(0.105878 -0.00429348 0.00193679)
(0.106921 -0.00555021 0.0022585)
(0.107421 -0.00457998 0.00203948)
(0.108526 -0.00516544 0.00197187)
(0.110322 -0.00349093 0.00220887)
(0.111473 -0.00397204 0.00184235)
(0.10805 -0.000879126 0.00185133)
(0.0901374 -0.00217092 0.000994451)
(0.0663775 -0.00184251 0.000913237)
(0.0983976 -0.00601411 0.00184737)
(0.105246 -0.00569002 0.00201871)
(0.106627 -0.00693156 0.00230797)
(0.10746 -0.00605481 0.0021099)
(0.108864 -0.00656145 0.00200824)
(0.110994 -0.00483737 0.00222748)
(0.112488 -0.00503002 0.00188016)
(0.109442 -0.0017335 0.00188519)
(0.0920154 -0.0023686 0.00108774)
(0.0618173 -0.00252846 0.00114753)
(0.0963019 -0.00719487 0.00202535)
(0.10444 -0.00746752 0.00217165)
(0.106268 -0.00870259 0.00241859)
(0.107497 -0.00795249 0.00224088)
(0.109291 -0.00836309 0.00210224)
(0.111852 -0.00659936 0.00229377)
(0.113829 -0.00643104 0.00196977)
(0.111327 -0.0028465 0.00196866)
(0.0945525 -0.00266449 0.00124882)
(0.0563128 -0.00326351 0.00151798)
(0.0934282 -0.00861226 0.00232856)
(0.103375 -0.00969083 0.00243394)
(0.105825 -0.0109618 0.00261683)
(0.107515 -0.0103806 0.00245497)
(0.109811 -0.0106989 0.00227848)
(0.112937 -0.00891534 0.00243034)
(0.115589 -0.0083133 0.00213162)
(0.113872 -0.00432199 0.00212689)
(0.0979697 -0.0031017 0.00150344)
(0.0497044 -0.00397237 0.00202652)
(0.0895261 -0.010217 0.00277984)
(0.10189 -0.0123854 0.00283097)
(0.105239 -0.0138145 0.00293628)
(0.107477 -0.0134725 0.00278304)
(0.110404 -0.01374 0.00256825)
(0.114278 -0.0119823 0.00266779)
(0.11788 -0.0108845 0.00239537)
(0.117305 -0.00632399 0.00239463)
(0.1026 -0.00374648 0.001888)
(0.0418862 -0.00449798 0.00260645)
(0.0841957 -0.0118869 0.00338113)
(0.0997098 -0.0155094 0.00341008)
(0.104399 -0.0173695 0.00343362)
(0.107307 -0.017396 0.00327118)
(0.111016 -0.0177171 0.00301537)
(0.115886 -0.0160847 0.00304865)
(0.120832 -0.0144745 0.00280288)
(0.121949 -0.00913675 0.00281959)
(0.108925 -0.00474201 0.00245813)
(0.0328976 -0.00457524 0.00305784)
(0.07699 -0.0133192 0.00404101)
(0.0963357 -0.0188529 0.00420065)
(0.103043 -0.0216885 0.00418873)
(0.10685 -0.0223645 0.00398619)
(0.1115 -0.0229447 0.00367411)
(0.117686 -0.0216407 0.00362713)
(0.124536 -0.0196169 0.00340659)
(0.128232 -0.0132468 0.00346722)
(0.117872 -0.00628436 0.00328987)
(0.0230389 -0.00381606 0.00308925)
(0.0673529 -0.0139873 0.00451048)
(0.0909479 -0.0219519 0.00517912)
(0.100657 -0.0266798 0.00531577)
(0.105849 -0.0285951 0.00503642)
(0.111638 -0.0298321 0.00461457)
(0.119522 -0.0292451 0.00446098)
(0.129059 -0.0271912 0.0042715)
(0.136825 -0.0196458 0.00444306)
(0.130656 -0.00906112 0.00450914)
(0.0140299 -0.00190388 0.00305609)
(0.0555975 -0.0132003 0.00495801)
(0.082726 -0.0241343 0.00636557)
(0.0963526 -0.0320275 0.00686664)
(0.103739 -0.0362625 0.00651668)
(0.110923 -0.0388892 0.00588646)
(0.120808 -0.0397273 0.00556698)
(0.134004 -0.0385713 0.00540435)
(0.147962 -0.0302756 0.00579824)
(0.151541 -0.0135 0.00626332)
(0.00798544 -0.000670876 0.00284959)
(0.0419996 -0.0110208 0.005516)
(0.0707368 -0.024249 0.00777149)
(0.088847 -0.0363671 0.00887712)
(0.0997713 -0.044825 0.00852927)
(0.109042 -0.0505503 0.00755855)
(0.121158 -0.0541605 0.00694036)
(0.139122 -0.0558198 0.00676518)
(0.162184 -0.0491114 0.00763804)
(0.182983 -0.0255632 0.00875463)
(0.00509446 -0.00287762 -0.000294242)
(0.0294024 -0.0112914 0.00408447)
(0.0561861 -0.0245797 0.00761958)
(0.0769023 -0.0389994 0.00959974)
(0.091531 -0.0520638 0.00981196)
(0.103841 -0.0632735 0.00880618)
(0.117532 -0.0733865 0.00782018)
(0.141631 -0.0808737 0.00752707)
(0.170831 -0.0899114 0.00897568)
(0.249727 -0.04184 0.011984)
(0.0959696 -0.0110589 0.0013441)
(0.100949 -0.00146656 0.00121526)
(0.10065 -0.00116036 0.00115485)
(0.100407 -0.000456342 0.00116604)
(0.100366 -0.000111787 0.00117156)
(0.100367 0.000101413 0.00117145)
(0.100408 0.000447316 0.00116577)
(0.100653 0.00115317 0.00115441)
(0.100955 0.00146039 0.00121592)
(0.0959747 0.011131 0.00134634)
(0.0937882 -0.00568723 0.00193429)
(0.106201 -0.00244727 0.00199409)
(0.103711 -0.00191746 0.00190435)
(0.102524 -0.000793361 0.00192197)
(0.102285 -0.000240152 0.00192936)
(0.102287 0.000210548 0.001929)
(0.102528 0.000765736 0.00192164)
(0.103717 0.00188459 0.00190384)
(0.106221 0.00238951 0.00199698)
(0.0937802 0.00572239 0.00193643)
(0.092084 -0.000462674 0.00160418)
(0.109054 -0.00286684 0.00166884)
(0.106107 -0.00162369 0.00159647)
(0.104447 -0.000663628 0.00161366)
(0.104093 -0.000273631 0.00162257)
(0.104098 0.000205913 0.00162206)
(0.104457 0.000599716 0.0016134)
(0.106113 0.00156207 0.00159739)
(0.109043 0.00281114 0.00167486)
(0.0921399 0.000493277 0.0016034)
(0.0905352 0.00224377 0.0011202)
(0.109466 -0.00305592 0.00116949)
(0.107232 -0.0011225 0.00108063)
(0.105576 -0.00051324 0.00109556)
(0.105214 -0.000291813 0.00110926)
(0.105223 0.00018394 0.00110933)
(0.105599 0.000411751 0.00109633)
(0.107253 0.00103412 0.00108129)
(0.109481 0.00299746 0.00117374)
(0.0906269 -0.00223566 0.00112249)
(0.0896333 0.00337481 0.000706993)
(0.109165 -0.00309451 0.000766824)
(0.107772 -0.00069292 0.000626742)
(0.106251 -0.000490626 0.000660716)
(0.105879 -0.000325613 0.000682916)
(0.105898 0.000164605 0.000682811)
(0.106289 0.000345725 0.000662145)
(0.107814 0.00056404 0.000629768)
(0.109179 0.0029877 0.000774769)
(0.0898097 -0.00341497 0.000715811)
(0.0892563 0.00373131 0.000347435)
(0.10885 -0.00305301 0.000448442)
(0.108267 -0.000346551 0.000247751)
(0.106854 -0.000546213 0.000298565)
(0.106432 -0.000346452 0.000321345)
(0.10645 0.000120527 0.000312583)
(0.106909 0.000343287 0.000298201)
(0.108333 0.000160747 0.000251259)
(0.10896 0.0028812 0.000457126)
(0.0894764 -0.00386686 0.000366729)
(0.0890575 0.00372435 4.68603e-05)
(0.108554 -0.00290408 0.00023533)
(0.108784 -7.07898e-05 -5.96293e-05)
(0.10744 -0.000626771 -7.96618e-06)
(0.106967 -0.000337804 1.16666e-05)
(0.10699 3.68809e-05 -2.35927e-06)
(0.107517 0.000355686 -6.13868e-06)
(0.108876 -0.000184685 -6.71918e-05)
(0.108851 0.00278407 0.000224849)
(0.0892935 -0.00398118 8.47374e-05)
(0.0887354 0.00360386 -0.000180535)
(0.10837 -0.00278388 8.93703e-05)
(0.109254 0.000122557 -0.000294878)
(0.107966 -0.000723765 -0.000239169)
(0.107465 -0.000317188 -0.000225561)
(0.107499 -8.00019e-05 -0.00024626)
(0.108071 0.000373344 -0.000241545)
(0.109396 -0.00047727 -0.000325148)
(0.10872 0.00269923 6.28335e-05)
(0.0891675 -0.0038918 -9.4028e-05)
(0.0883851 0.0033479 -0.000267098)
(0.108104 -0.00271415 3.15252e-05)
(0.10967 0.000270662 -0.000498212)
(0.108415 -0.000838513 -0.000411116)
(0.107904 -0.000298855 -0.000394645)
(0.107951 -0.000218013 -0.000429638)
(0.108561 0.000381541 -0.000411858)
(0.109867 -0.000734236 -0.000536035)
(0.108534 0.00254442 -4.27134e-05)
(0.0891099 -0.0036663 -0.00016174)
(0.0879986 0.0030468 -0.000239148)
(0.107928 -0.00267895 -6.53207e-05)
(0.110022 0.00037106 -0.000670774)
(0.108803 -0.000965392 -0.000539265)
(0.108292 -0.000292009 -0.000530156)
(0.108362 -0.000378253 -0.000566502)
(0.109005 0.000375914 -0.000533224)
(0.110299 -0.000959357 -0.000697513)
(0.108471 0.00236953 -0.000143201)
(0.0890553 -0.00342463 -0.00017887)
(0.0875761 0.00277179 -0.000218917)
(0.107787 -0.00264877 -0.000130638)
(0.110324 0.000393549 -0.000787381)
(0.109148 -0.00111731 -0.00063072)
(0.10865 -0.0003099 -0.000635856)
(0.108752 -0.000565726 -0.000672409)
(0.109426 0.000352022 -0.000619407)
(0.110721 -0.0011518 -0.00080865)
(0.108505 0.00219063 -0.000210793)
(0.0890271 -0.00322475 -0.000206764)
(0.0870584 0.00252818 -0.000215578)
(0.107715 -0.00265019 -0.000185613)
(0.1106 0.000352147 -0.000867248)
(0.109463 -0.00129736 -0.000692943)
(0.108992 -0.000362532 -0.000719596)
(0.109129 -0.000784552 -0.000752904)
(0.109837 0.000294497 -0.000680123)
(0.111151 -0.00133923 -0.000891631)
(0.108632 0.00200219 -0.000262088)
(0.0890334 -0.00307185 -0.000234745)
(0.0864582 0.0022838 -0.000224238)
(0.107635 -0.00268131 -0.000222966)
(0.110846 0.000246958 -0.000919899)
(0.109749 -0.00151206 -0.000733893)
(0.109317 -0.000463128 -0.000779317)
(0.109498 -0.0010384 -0.000812885)
(0.110244 0.00019265 -0.00072169)
(0.111591 -0.00153493 -0.00095454)
(0.10883 0.00179898 -0.000301177)
(0.0890896 -0.00295057 -0.000257002)
(0.0857264 0.00202724 -0.000234943)
(0.107535 -0.00273437 -0.000246197)
(0.111053 7.79521e-05 -0.000952108)
(0.110005 -0.00176989 -0.000758088)
(0.109625 -0.000624204 -0.000822157)
(0.10986 -0.00133413 -0.000856776)
(0.110654 3.54653e-05 -0.000746679)
(0.112049 -0.00175158 -0.00100183)
(0.109094 0.00157742 -0.00032766)
(0.0892174 -0.00285145 -0.000271013)
(0.0848129 0.00175606 -0.000237877)
(0.107409 -0.00284584 -0.000258954)
(0.111214 -0.000164532 -0.000968972)
(0.110232 -0.0020834 -0.000768612)
(0.109918 -0.000862171 -0.000851619)
(0.110222 -0.0016863 -0.000886833)
(0.111078 -0.000190945 -0.000759141)
(0.112535 -0.0020029 -0.00103665)
(0.109433 0.00133036 -0.000345843)
(0.0894455 -0.0027736 -0.000272715)
(0.0836947 0.00145312 -0.000229994)
(0.107216 -0.00302539 -0.000256249)
(0.111319 -0.000501025 -0.000968773)
(0.110428 -0.00247058 -0.000766698)
(0.110196 -0.00119814 -0.000865357)
(0.110589 -0.00211254 -0.000904515)
(0.111527 -0.000503584 -0.000761043)
(0.113064 -0.0023032 -0.00105905)
(0.109862 0.00104618 -0.000357512)
(0.0898043 -0.00272099 -0.000261858)
(0.0822994 0.00110969 -0.000208729)
(0.106942 -0.00328676 -0.000236459)
(0.111362 -0.000954886 -0.000949209)
(0.110591 -0.00295539 -0.000751939)
(0.110464 -0.00165774 -0.000863749)
(0.11097 -0.00263513 -0.000909264)
(0.112014 -0.000925297 -0.000752144)
(0.113655 -0.00267061 -0.00106797)
(0.110407 0.000708854 -0.000361061)
(0.0903328 -0.00269616 -0.000239633)
(0.0805605 0.000712539 -0.000167966)
(0.106553 -0.00365854 -0.000193299)
(0.111332 -0.00155768 -0.000905499)
(0.110719 -0.00356855 -0.000721981)
(0.110723 -0.00227444 -0.000844026)
(0.111375 -0.00328447 -0.000899236)
(0.112558 -0.00148564 -0.000731363)
(0.114334 -0.00312984 -0.0010618)
(0.111104 0.000299914 -0.000355552)
(0.0910767 -0.00270499 -0.000205051)
(0.0783943 0.000246959 -9.65698e-05)
(0.105999 -0.00416315 -0.00011852)
(0.111219 -0.00234727 -0.000831802)
(0.110813 -0.00434791 -0.000672129)
(0.110978 -0.00308959 -0.000802038)
(0.111815 -0.00409932 -0.000871302)
(0.11318 -0.00222329 -0.00069643)
(0.115133 -0.00371257 -0.00103848)
(0.111996 -0.000205634 -0.00033867)
(0.0920999 -0.00275193 -0.000155096)
(0.0757013 -0.000297491 2.21312e-05)
(0.105216 -0.00482721 -1.72649e-06)
(0.111011 -0.00336977 -0.000718729)
(0.11087 -0.00534056 -0.000594805)
(0.111232 -0.00415371 -0.000731426)
(0.112304 -0.00512968 -0.000819782)
(0.113907 -0.00318914 -0.000642804)
(0.116092 -0.00446252 -0.000994213)
(0.113148 -0.000841206 -0.000306973)
(0.0934822 -0.00284883 -8.4448e-05)
(0.0723785 -0.000923691 0.000206722)
(0.104115 -0.00567639 0.000174952)
(0.11069 -0.00467895 -0.000550901)
(0.110889 -0.00660398 -0.000478311)
(0.11149 -0.0055284 -0.000622456)
(0.112858 -0.00644059 -0.000735696)
(0.114771 -0.00444968 -0.000563022)
(0.117265 -0.00543898 -0.000921847)
(0.114647 -0.0016491 -0.000253616)
(0.0953342 -0.00301022 1.48217e-05)
(0.0683227 -0.00162058 0.000481588)
(0.102578 -0.00673002 0.000436668)
(0.110232 -0.0063313 -0.000307025)
(0.110868 -0.00820636 -0.000305666)
(0.111754 -0.00728791 -0.000460968)
(0.113491 -0.00811644 -0.000606072)
(0.11581 -0.0060947 -0.000446136)
(0.118722 -0.00672513 -0.000810923)
(0.116599 -0.00269396 -0.0001685)
(0.0978101 -0.00326205 0.000155087)
(0.0634596 -0.00236016 0.000876563)
(0.100448 -0.00798968 0.000813236)
(0.109594 -0.00837281 3.90281e-05)
(0.110799 -0.0102256 -5.28506e-05)
(0.11202 -0.00952022 -0.00022716)
(0.11421 -0.0102669 -0.000412691)
(0.117064 -0.00824747 -0.000276846)
(0.120549 -0.0084445 -0.000646783)
(0.119165 -0.00407134 -3.84042e-05)
(0.101125 -0.00363892 0.000353224)
(0.057762 -0.00308718 0.00141448)
(0.0975396 -0.00942277 0.00133611)
(0.10869 -0.0108233 0.000521395)
(0.110663 -0.0127427 0.000313684)
(0.112271 -0.0123278 0.000106166)
(0.115009 -0.0130346 -0.000130748)