/*--------------------------------*- C++ -*----------------------------------*\
| =========                 |                                                 |
| \\      /  F ield         | OpenFOAM: The Open Source CFD Toolbox           |
|  \\    /   O peration     | Version:  4.1                                   |
|   \\  /    A nd           | Web:      www.OpenFOAM.org                      |
|    \\/     M anipulation  |                                                 |
\*---------------------------------------------------------------------------*/
FoamFile
{
    version     2.0;
    format      ascii;
    class       volScalarField;
    location    "65";
    object      T;
}
// * * * * * * * * * * * * * * * * * * * * * * * * * * * * * * * * * * * * * //

dimensions      [0 0 0 1 0 0 0];

internalField   nonuniform List<scalar> 
12000
(
0.999583
1.00358
0.999807
1.00054
1.00055
1.00055
1.00053
0.999806
1.00359
0.999558
0.994979
0.996274
0.99554
0.996991
0.997021
0.997014
0.996979
0.995539
0.996307
0.994933
0.999372
0.994202
0.997396
0.998257
0.998159
0.998157
0.99825
0.997414
0.994232
0.999302
1.00385
0.995572
1.00083
1.00049
1.00029
1.00027
1.00049
1.00085
0.99556
1.00374
1.00496
0.996286
1.00237
1.00118
1.00117
1.00107
1.00118
1.00239
0.996229
1.00482
1.00441
0.996219
1.0025
1.00085
1.00118
1.00107
1.00085
1.00249
0.996173
1.00423
1.00371
0.996266
1.00232
1.00037
1.00095
1.00093
1.00035
1.00228
0.996255
1.00349
1.00314
0.996556
1.00214
0.999989
1.00075
1.00079
0.999954
1.00209
0.996577
1.00289
1.00259
0.996884
1.00192
0.999662
1.00054
1.00062
0.999612
1.00184
0.996919
1.00231
1.00208
0.997164
1.00163
0.999362
1.00033
1.00042
0.999311
1.00155
0.997198
1.00175
1.00166
0.997372
1.00134
0.999144
1.00014
1.00023
0.999066
1.00125
0.99741
1.00127
1.00135
0.99755
1.0011
0.99901
0.999982
1.00009
0.998895
1.00101
0.997584
1.0009
1.00117
0.997752
1.0009
0.998941
0.999872
0.999987
0.998806
1.00081
0.997744
1.00064
1.00108
0.997943
1.00075
0.998922
0.999799
0.999919
0.998774
1.00065
0.997889
1.00042
1.00108
0.998126
1.00064
0.998942
0.999758
0.99988
0.998781
1.00052
0.998018
1.00025
1.00116
0.998312
1.00057
0.998992
0.999739
0.999866
0.998817
1.00042
0.998134
1.0001
1.00133
0.998504
1.00051
0.999064
0.99974
0.999871
0.998871
1.00035
0.998232
0.999974
1.00157
0.998717
1.00046
0.99915
0.999756
0.999892
0.99894
1.00029
0.998308
0.999862
1.00186
0.998979
1.00039
0.999242
0.999786
0.999932
0.999027
1.00024
0.99836
0.999755
1.00215
0.999328
1.00029
0.999332
0.99983
0.999998
0.99913
1.00023
0.998387
0.999641
1.00235
0.99975
1.00012
0.99939
0.999875
1.00009
0.999249
1.00025
0.998379
0.999492
1.0022
1.00016
0.99982
0.99936
0.999896
1.0002
0.999385
1.00027
0.998315
0.99926
1.00132
1.00036
0.999274
0.999114
0.999811
1.00026
0.999525
1.00028
0.998156
0.998853
0.998981
0.999797
0.998253
0.998408
0.999418
1.00017
0.999605
1.00026
0.997831
0.998104
0.993985
0.997215
0.996103
0.996702
0.998262
0.9996
0.999485
1.00016
0.997254
0.996619
0.983874
0.990209
0.991415
0.992938
0.995423
0.997876
0.998742
0.999845
0.996382
0.993869
0.96281
0.974362
0.981217
0.985014
0.989267
0.993778
0.996676
0.999211
0.995752
0.988227
0.9355
0.953201
0.964333
0.970539
0.97723
0.984684
0.990955
0.996663
0.997282
0.981073
0.899936
0.921033
0.935834
0.945438
0.956191
0.967972
0.9801
0.990972
1.00832
0.97259
0.841653
0.859623
0.882175
0.900537
0.91689
0.931653
0.949783
0.962423
1.03092
1.02414
1.00359
1.00675
1.00301
1.00391
1.00387
1.00387
1.00391
1.00301
1.00679
1.00354
0.996298
0.996863
0.996392
0.998265
0.998221
0.998219
0.99825
0.996387
0.996959
0.99624
0.994235
0.98974
0.992956
0.993843
0.993639
0.993629
0.993825
0.99297
0.989826
0.994131
0.995617
0.987826
0.993448
0.992816
0.99245
0.99245
0.992795
0.993474
0.987909
0.995468
0.996341
0.987434
0.994339
0.992675
0.992441
0.992501
0.992655
0.994363
0.987536
0.996152
0.996289
0.987519
0.994654
0.992459
0.992628
0.99271
0.992432
0.994668
0.987594
0.9961
0.996358
0.988187
0.994892
0.992426
0.993038
0.993084
0.992389
0.994891
0.988212
0.996185
0.996679
0.989334
0.995353
0.992736
0.993675
0.993693
0.992687
0.995322
0.989299
0.996501
0.997048
0.990588
0.995896
0.993258
0.994389
0.994401
0.993189
0.995847
0.990509
0.996832
0.997382
0.991706
0.996379
0.99382
0.995045
0.995067
0.993726
0.996308
0.991605
0.997084
0.997658
0.992694
0.996788
0.994352
0.995607
0.995643
0.994246
0.996688
0.992571
0.997262
0.997919
0.993585
0.997136
0.994859
0.99609
0.996142
0.994746
0.99701
0.993425
0.997412
0.99823
0.994338
0.997446
0.995348
0.996511
0.99658
0.995216
0.997296
0.994151
0.997555
0.998556
0.994989
0.99773
0.995816
0.996881
0.996968
0.995656
0.997553
0.994766
0.99768
0.998895
0.995565
0.997976
0.996253
0.997206
0.997312
0.996064
0.997779
0.995277
0.997808
0.999259
0.996082
0.998195
0.996657
0.997493
0.997617
0.99644
0.997978
0.995687
0.997942
0.999635
0.996564
0.99839
0.997027
0.997749
0.99789
0.996786
0.998161
0.996025
0.998042
1.00001
0.997027
0.99856
0.997359
0.997974
0.998134
0.997098
0.99833
0.996296
0.99809
1.00036
0.997475
0.998686
0.997645
0.998168
0.99835
0.997375
0.998479
0.996498
0.998076
1.00066
0.997893
0.998733
0.997868
0.998325
0.998533
0.997612
0.998594
0.996621
0.997985
1.00078
0.998275
0.998671
0.997997
0.998427
0.998672
0.997803
0.998655
0.996638
0.997784
1.00053
0.998569
0.998453
0.997981
0.998439
0.998744
0.997929
0.998646
0.99651
0.997414
0.999633
0.998606
0.997972
0.997724
0.998288
0.9987
0.997957
0.998533
0.996175
0.99676
0.99759
0.998022
0.99702
0.99702
0.997803
0.998422
0.997823
0.998265
0.995535
0.995633
0.993396
0.995978
0.995105
0.995443
0.996637
0.99768
0.997405
0.997786
0.994461
0.993614
0.985014
0.990669
0.991119
0.992125
0.994058
0.995936
0.996376
0.996989
0.992883
0.990159
0.968825
0.97869
0.98274
0.985437
0.988809
0.992261
0.994198
0.995825
0.991183
0.98357
0.943283
0.958185
0.967379
0.972926
0.978604
0.9845
0.989066
0.993214
0.99136
0.975108
0.904516
0.92482
0.940461
0.951024
0.960639
0.97007
0.97926
0.987499
0.999509
0.963612
0.851068
0.871747
0.892989
0.911326
0.927026
0.940224
0.955102
0.964806
1.02215
1.00444
0.999819
1.00301
0.998896
0.999618
0.999577
0.999576
0.999614
0.998897
1.00306
0.999753
0.99557
0.996402
0.996001
0.997902
0.997907
0.9979
0.997879
0.995984
0.996495
0.9955
0.997443
0.992971
0.996511
0.997542
0.997367
0.997353
0.997516
0.99653
0.993067
0.997308
1.00089
0.993464
0.999435
0.998787
0.998441
0.998433
0.998761
0.999463
0.993525
1.00074
1.00244
0.994355
1.00165
0.999837
0.999728
0.999735
0.999809
1.00167
0.99438
1.00229
1.00257
0.99467
1.00229
0.999948
1.00038
1.00037
0.999918
1.0023
0.99466
1.00242
1.0024
0.994906
1.00219
0.999594
1.00053
1.00051
0.999563
1.00219
0.994866
1.00223
1.00224
0.995356
1.00201
0.999272
1.00055
1.00052
0.999244
1.00201
0.995289
1.00204
1.00203
0.995891
1.00186
0.999089
1.00056
1.00054
0.999053
1.00184
0.995789
1.00183
1.00177
0.996364
1.00168
0.998968
1.00052
1.00052
0.998915
1.00164
0.996242
1.00153
1.00152
0.996758
1.00145
0.998866
1.00043
1.00046
0.9988
1.00139
0.996626
1.0012
1.00133
0.99709
1.00121
0.998797
1.00031
1.00036
0.998716
1.00114
0.996951
1.00092
1.00122
0.997366
1.001
0.99877
1.00019
1.00026
0.998669
1.00091
0.997231
1.00068
1.00116
0.997616
1.00082
0.998778
1.00008
1.00017
0.998656
1.0007
0.997468
1.00049
1.00116
0.997836
1.00065
0.99881
0.999984
1.0001
0.998666
1.00052
0.99766
1.00032
1.00124
0.99803
1.00049
0.998856
0.999897
1.00003
0.998693
1.00037
0.997813
1.00016
1.00137
0.998216
1.00036
0.998911
0.999823
0.999974
0.998732
1.00024
0.997934
1.00002
1.00154
0.998411
1.00023
0.998969
0.999763
0.999932
0.998777
1.00014
0.998028
0.999857
1.00172
0.998619
1.00011
0.999019
0.99971
0.999901
0.998824
1.00006
0.998087
0.999676
1.00186
0.998831
0.999953
0.999041
0.999656
0.999873
0.998865
0.99998
0.998089
0.999464
1.00187
0.999037
0.999725
0.999004
0.999581
0.999837
0.99889
0.999892
0.998013
0.99918
1.00157
0.999181
0.999369
0.998857
0.999452
0.999771
0.998884
0.999774
0.997823
0.998762
1.00067
0.999098
0.998782
0.998503
0.999201
0.999634
0.998821
0.999594
0.997462
0.998101
0.998613
0.998421
0.997761
0.997757
0.998679
0.99933
0.998651
0.999312
0.996838
0.997012
0.994513
0.9964
0.995854
0.996257
0.9976
0.99867
0.998286
0.998895
0.995835
0.995089
0.986878
0.991619
0.992131
0.993301
0.99539
0.99724
0.997486
0.998298
0.994405
0.991809
0.973431
0.9819
0.98499
0.987696
0.991116
0.994363
0.995904
0.997622
0.993027
0.985539
0.952223
0.964877
0.972153
0.977539
0.983086
0.988473
0.99225
0.996207
0.993926
0.977498
0.92089
0.937534
0.950531
0.960543
0.969529
0.977917
0.985684
0.993214
1.00403
0.966942
0.876167
0.895373
0.914843
0.931207
0.944663
0.955533
0.967875
0.975591
1.03111
1.00836
1.00055
1.00392
0.999619
1.00039
1.00036
1.00036
1.00039
0.999617
1.00397
1.00048
0.997023
0.998278
0.997906
1.00002
1.00004
1.00003
0.999995
0.997886
0.998374
0.996951
0.998313
0.993861
0.997549
0.998832
0.998652
0.998637
0.998803
0.997569
0.993956
0.998164
1.00058
0.992831
0.99879
0.998236
0.997847
0.997835
0.998211
0.998818
0.99288
1.00041
1.00126
0.992704
0.999842
0.997964
0.997795
0.997792
0.99794
0.999865
0.992719
1.00109
1.00093
0.992491
0.999946
0.997422
0.997786
0.997792
0.997396
0.99996
0.99251
1.00072
1.00047
0.992435
0.999585
0.996721
0.997589
0.997602
0.996691
0.99958
0.992455
1.00023
1.0001
0.992728
0.999262
0.996193
0.997393
0.997415
0.996157
0.999234
0.992718
0.999864
0.99978
0.993226
0.999074
0.995934
0.997323
0.997358
0.995888
0.999031
0.993192
0.999526
0.999513
0.993763
0.998946
0.995863
0.997339
0.997392
0.995799
0.998886
0.99372
0.999197
0.999326
0.994277
0.998842
0.995901
0.997388
0.997458
0.995811
0.998765
0.994231
0.998924
0.999233
0.994774
0.998772
0.996021
0.997457
0.997547
0.995907
0.998682
0.994722
0.998718
0.999234
0.995249
0.998742
0.996209
0.997552
0.997662
0.996071
0.998644
0.995178
0.998584
0.999314
0.995701
0.998746
0.996445
0.997672
0.997803
0.996283
0.998638
0.995588
0.99852
0.99946
0.996125
0.998772
0.996709
0.997806
0.997958
0.996521
0.998654
0.995948
0.998503
0.999661
0.996526
0.998815
0.996985
0.997946
0.998117
0.99677
0.998688
0.996268
0.998499
0.999906
0.99691
0.998866
0.997262
0.99809
0.998279
0.99702
0.998739
0.996549
0.998489
1.00018
0.99728
0.998912
0.997528
0.998232
0.998437
0.997262
0.998797
0.996783
0.998463
1.00047
0.99764
0.998937
0.997768
0.998364
0.998586
0.997489
0.998853
0.996961
0.998408
1.00073
0.997995
0.99892
0.997964
0.998477
0.998721
0.997692
0.998901
0.997067
0.9983
1.00088
0.998335
0.998826
0.998086
0.998556
0.998832
0.997864
0.998925
0.997082
0.998104
1.00074
0.998611
0.998613
0.998092
0.998576
0.998904
0.997993
0.998909
0.996969
0.997766
1.00008
0.998692
0.998193
0.997901
0.998485
0.998908
0.998065
0.99883
0.996681
0.997183
0.99841
0.998264
0.997403
0.997365
0.998171
0.99878
0.998054
0.99867
0.996142
0.996188
0.994943
0.996675
0.995867
0.996204
0.997422
0.998394
0.997922
0.998446
0.995276
0.994416
0.988408
0.992747
0.992837
0.993885
0.995817
0.997466
0.997531
0.998192
0.99411
0.991396
0.97692
0.984673
0.987019
0.989504
0.992671
0.995521
0.99669
0.998153
0.99326
0.985653
0.958324
0.970042
0.976316
0.981402
0.986513
0.991186
0.99426
0.99778
0.995065
0.978356
0.929987
0.945727
0.95777
0.967297
0.975482
0.982684
0.989309
0.996183
1.00662
0.969315
0.888477
0.907307
0.926205
0.941286
0.952815
0.961602
0.972296
0.978989
1.03476
1.01124
1.00057
1.00387
0.999579
1.00036
1.00032
1.00032
1.00035
0.999575
1.00393
1.0005
0.997055
0.998238
0.997916
1.00005
1.00006
1.00005
1.00002
0.997895
0.998342
0.996983
0.998222
0.993664
0.997382
0.998663
0.998457
0.998441
0.998629
0.997401
0.993764
0.998076
1.00035
0.992506
0.99847
0.997865
0.997436
0.997422
0.997836
0.998493
0.992547
1.00019
1.00116
0.992564
0.999768
0.997822
0.997618
0.997612
0.997794
0.999784
0.992567
1.001
1.00116
0.992774
1.0004
0.997822
0.998182
0.998182
0.997792
1.0004
0.99277
1.00096
1.00099
0.993158
1.00054
0.997635
0.998539
0.998544
0.997599
1.00051
0.993131
1.00079
1.00084
0.993763
1.00054
0.997454
0.998724
0.998738
0.997409
1.0005
0.993697
1.00065
1.0007
0.99444
1.00054
0.997399
0.99888
0.99891
0.997341
1.00049
0.994358
1.00047
1.00055
0.995066
1.0005
0.997431
0.999018
0.999066
0.997353
1.00044
0.994983
1.00026
1.00043
0.995601
1.00041
0.997494
0.999102
0.999172
0.997393
1.00035
0.995531
1.00004
1.00035
0.996066
1.00029
0.997578
0.999141
0.999232
0.997454
1.00024
0.995996
0.999852
1.00032
0.996477
1.00019
0.997689
0.99916
0.999273
0.997541
1.00013
0.996383
0.999722
1.00035
0.996846
1.0001
0.997826
0.999178
0.999314
0.997656
1.00003
0.996713
0.999621
1.00043
0.997174
1.00001
0.997979
0.999197
0.999357
0.997787
0.999946
0.996994
0.999536
1.00056
0.997469
0.999941
0.998137
0.999216
0.999398
0.997924
0.999872
0.997232
0.999455
1.00074
0.997743
0.999873
0.998293
0.999236
0.999437
0.99806
0.99981
0.99743
0.99937
1.00094
0.998004
0.999803
0.99844
0.999254
0.999474
0.998191
0.99976
0.997582
0.999272
1.00116
0.998262
0.99972
0.998566
0.999265
0.999505
0.998311
0.999715
0.997684
0.999146
1.00135
0.998524
0.999605
0.998658
0.999265
0.999528
0.998415
0.999667
0.997722
0.998973
1.00144
0.998788
0.99943
0.998692
0.999242
0.999537
0.998495
0.999604
0.997677
0.998721
1.0013
0.999017
0.999156
0.99863
0.999175
0.99952
0.998543
0.999512
0.997515
0.998335
1.00069
0.999092
0.998699
0.998399
0.999019
0.999454
0.99855
0.999372
0.997188
0.997718
0.999156
0.998725
0.997907
0.997861
0.998677
0.999286
0.998497
0.999172
0.996628
0.996706
0.995974
0.997316
0.996437
0.996762
0.997965
0.998912
0.998364
0.998939
0.995769
0.994945
0.989927
0.993769
0.993601
0.994608
0.996499
0.998079
0.998031
0.998725
0.99465
0.99197
0.979157
0.986352
0.988189
0.990549
0.993626
0.996336
0.997324
0.998775
0.993888
0.986285
0.961226
0.972498
0.978109
0.982946
0.987877
0.992307
0.995103
0.998531
0.995801
0.979007
0.933217
0.948817
0.960282
0.969423
0.97729
0.984138
0.990398
0.997052
1.00746
0.969716
0.892288
0.911105
0.929703
0.944175
0.955101
0.963363
0.973642
0.979915
1.03576
1.01148
1.00057
1.00387
0.999579
1.00036
1.00032
1.00032
1.00035
0.999576
1.00393
1.0005
0.997054
0.998237
0.997915
1.00005
1.00006
1.00004
1.00002
0.997895
0.998339
0.99698
0.998223
0.993661
0.997379
0.998659
0.998451
0.998437
0.998627
0.9974
0.99376
0.998073
1.00035
0.992499
0.998467
0.997861
0.99743
0.997417
0.997832
0.998491
0.992543
1.00019
1.00117
0.992555
0.999769
0.99782
0.997616
0.997606
0.997791
0.999784
0.992566
1.00099
1.00117
0.992766
1.0004
0.997821
0.99818
0.998176
0.99779
1.0004
0.992768
1.00096
1.00103
0.993138
1.00053
0.997631
0.998535
0.99854
0.997598
1.00051
0.993126
1.00079
1.00089
0.99373
1.00054
0.997446
0.998718
0.998733
0.997405
1.0005
0.993691
1.00066
1.00074
0.994414
1.00054
0.997387
0.998874
0.998905
0.997334
1.00049
0.994359
1.00047
1.00055
0.995054
1.00051
0.997419
0.999012
0.999062
0.997349
1.00044
0.994995
1.00023
1.00041
0.9956
1.00042
0.997482
0.999096
0.999168
0.99739
1.00035
0.995543
1.00002
1.00033
0.996065
1.0003
0.997564
0.999133
0.999227
0.997449
1.00023
0.996002
0.99984
1.0003
0.996476
1.0002
0.997675
0.99915
0.999267
0.997534
1.00012
0.996385
0.999723
1.00032
0.996842
1.0001
0.997811
0.999164
0.999305
0.997645
1.00001
0.996709
0.999638
1.0004
0.997163
1.00001
0.997961
0.999181
0.999344
0.99777
0.999916
0.996985
0.999557
1.00053
0.997454
0.999933
0.998116
0.999197
0.999381
0.997901
0.99984
0.997223
0.999465
1.00069
0.997721
0.999857
0.998267
0.999212
0.999415
0.998033
0.999777
0.99742
0.999365
1.00089
0.997975
0.999779
0.998408
0.999222
0.999444
0.99816
0.999723
0.997571
0.999257
1.0011
0.998224
0.999685
0.998527
0.999226
0.999467
0.998274
0.999671
0.997667
0.999126
1.00128
0.998475
0.999558
0.998609
0.999216
0.999481
0.998372
0.999614
0.997696
0.99895
1.00136
0.998724
0.999367
0.998631
0.999183
0.999479
0.998445
0.999541
0.997638
0.998692
1.00119
0.998934
0.999073
0.998553
0.9991
0.999446
0.998481
0.999433
0.99746
0.998298
1.00055
0.998983
0.998592
0.998299
0.99892
0.999356
0.998468
0.999271
0.997109
0.997666
0.998957
0.998575
0.997768
0.997728
0.998544
0.999153
0.998384
0.999042
0.996517
0.996633
0.995674
0.997095
0.996247
0.996576
0.99778
0.998729
0.998203
0.998767
0.995613
0.994833
0.989494
0.993432
0.99333
0.994348
0.996238
0.997821
0.997799
0.998488
0.994433
0.991804
0.978602
0.985872
0.987801
0.99018
0.993254
0.995966
0.996984
0.998433
0.993578
0.986029
0.960614
0.971879
0.977582
0.982447
0.987373
0.991803
0.994636
0.998071
0.995395
0.978697
0.932703
0.948126
0.959579
0.968725
0.976575
0.983409
0.989695
0.996365
1.00682
0.969212
0.891668
0.910308
0.928864
0.943368
0.954303
0.962571
0.972894
0.979236
1.03517
1.01122
1.00055
1.00391
0.999618
1.00039
1.00036
1.00035
1.00039
0.999613
1.00397
1.00048
0.997022
0.998268
0.997893
1.00001
1.00003
1.00002
0.999978
0.997871
0.998366
0.996939
0.998309
0.993857
0.997541
0.998822
0.998636
0.998623
0.99879
0.997558
0.993946
0.998167
1.0006
0.99282
0.998788
0.998232
0.997838
0.997826
0.998209
0.998818
0.99287
1.00042
1.00133
0.992657
0.999843
0.997963
0.997794
0.997786
0.997944
0.999869
0.992706
1.00111
1.001
0.992435
0.999961
0.997422
0.997792
0.997787
0.997401
0.999959
0.992461
1.00079
1.00049
0.992402
0.999611
0.996719
0.997597
0.9976
0.996692
0.999579
0.992383
1.0003
1.00008
0.992715
0.999295
0.996191
0.997405
0.997418
0.996152
0.999241
0.992658
0.999893
0.999746
0.993228
0.999106
0.995931
0.997336
0.997363
0.995878
0.99904
0.993146
0.999524
0.999471
0.993771
0.998972
0.995856
0.997351
0.997396
0.995784
0.998898
0.993677
0.999188
0.999283
0.99429
0.99886
0.995891
0.997396
0.99746
0.995797
0.998784
0.99419
0.998906
0.999196
0.994789
0.998781
0.996009
0.997461
0.997547
0.99589
0.998706
0.994678
0.998695
0.999197
0.995267
0.998746
0.996196
0.997552
0.997661
0.99605
0.998673
0.995136
0.998554
0.999272
0.995716
0.998744
0.996432
0.997667
0.997798
0.996258
0.998674
0.995553
0.998475
0.999415
0.996135
0.998762
0.996693
0.997795
0.997948
0.996492
0.99869
0.99592
0.998444
0.999609
0.996527
0.998791
0.996962
0.99793
0.998104
0.996735
0.998719
0.996243
0.998432
0.999843
0.9969
0.998828
0.99723
0.998067
0.998261
0.99698
0.998761
0.996525
0.998415
1.0001
0.997255
0.998862
0.997486
0.998199
0.998414
0.997219
0.998808
0.99676
0.998385
1.00037
0.997599
0.998874
0.997715
0.99832
0.998556
0.997442
0.998854
0.996935
0.998331
1.00059
0.997929
0.998839
0.997897
0.998421
0.998682
0.997642
0.99889
0.997039
0.998227
1.00069
0.998232
0.998724
0.998002
0.998484
0.99878
0.99781
0.998902
0.99705
0.99803
1.00049
0.998459
0.998482
0.997984
0.998481
0.998832
0.997928
0.998868
0.996928
0.997687
0.999725
0.998462
0.998015
0.997755
0.998352
0.998802
0.997975
0.998764
0.996621
0.997092
0.997883
0.997901
0.997139
0.997151
0.997972
0.998611
0.997915
0.998561
0.996044
0.996075
0.994139
0.996076
0.995448
0.995867
0.997109
0.998119
0.99769
0.998257
0.995108
0.994246
0.987188
0.991775
0.99215
0.993334
0.995311
0.997011
0.997137
0.997865
0.993832
0.991128
0.975259
0.983217
0.98592
0.988604
0.991851
0.994772
0.996022
0.99757
0.992775
0.985178
0.956336
0.968093
0.974708
0.980035
0.985272
0.99005
0.993239
0.996868
0.994355
0.977751
0.927781
0.94322
0.955403
0.965158
0.97352
0.98086
0.98761
0.994567
1.00528
0.968076
0.885576
0.904138
0.923108
0.938499
0.950359
0.959434
0.970356
0.977224
1.03347
1.01084
0.999819
1.00301
0.998896
0.999618
0.999577
0.999575
0.999611
0.998892
1.00306
0.999752
0.995571
0.996399
0.995985
0.997885
0.997892
0.997885
0.997858
0.995966
0.996493
0.995494
0.997459
0.992984
0.996529
0.99756
0.997384
0.997373
0.997534
0.996551
0.993088
0.997328
1.00092
0.993464
0.999457
0.998806
0.998463
0.998453
0.998784
0.999488
0.993524
1.00077
1.00246
0.994336
1.00167
0.999848
0.999745
0.999735
0.999828
1.00168
0.994349
1.00233
1.00258
0.994638
1.00229
0.99994
1.00036
1.00036
0.999923
1.00231
0.994619
1.00244
1.00239
0.994868
1.00218
0.999569
1.00048
1.00048
0.999543
1.00219
0.99484
1.00221
1.00221
0.995321
1.00199
0.999243
1.00047
1.00049
0.999199
1.00199
0.995266
1.00201
1.00199
0.995856
1.00183
0.999052
1.00047
1.0005
0.998992
1.00181
0.995763
1.00179
1.00174
0.996327
1.00163
0.998928
1.00043
1.00047
0.998846
1.00159
0.996205
1.0015
1.00149
0.996721
1.00139
0.998831
1.00034
1.0004
0.998725
1.00135
0.996573
1.00119
1.00128
0.997053
1.00116
0.998768
1.00023
1.0003
0.998636
1.0011
0.996891
1.0009
1.00116
0.997327
1.00095
0.998746
1.00011
1.0002
0.998588
1.00088
0.997174
1.00066
1.00111
0.99757
1.00076
0.998754
1
1.00011
0.998577
1.00067
0.997415
1.00045
1.00112
0.997782
1.00059
0.998779
0.999902
1.00003
0.998588
1.00049
0.997612
1.00027
1.00117
0.997978
1.00043
0.998816
0.999815
0.999963
0.998614
1.00033
0.997769
1.00011
1.00127
0.998168
1.00029
0.998861
0.99974
0.999905
0.998651
1.0002
0.997895
0.999959
1.00142
0.998346
1.00016
0.998905
0.999674
0.999858
0.998695
1.00008
0.997988
0.999801
1.00157
0.998526
1.00001
0.998937
0.999611
0.999819
0.99874
0.999988
0.998041
0.999624
1.00166
0.998703
0.99983
0.998937
0.999543
0.999782
0.998777
0.9999
0.998038
0.999406
1.0016
0.998863
0.999572
0.998875
0.999447
0.999731
0.998794
0.999801
0.997957
0.99911
1.0012
0.998946
0.99917
0.998691
0.999284
0.999638
0.998769
0.999664
0.997752
0.998673
1.00014
0.998765
0.998512
0.998275
0.998975
0.999449
0.998668
0.999447
0.997362
0.997981
0.997833
0.997909
0.99736
0.997413
0.998348
0.999045
0.99842
0.999097
0.996675
0.996838
0.993317
0.995545
0.9952
0.995692
0.997066
0.998197
0.997899
0.99855
0.995557
0.994808
0.984965
0.990167
0.991034
0.992346
0.994498
0.996435
0.996815
0.997715
0.993926
0.991347
0.970623
0.979591
0.983197
0.986105
0.989633
0.993008
0.994733
0.996598
0.992186
0.984708
0.948651
0.961643
0.969523
0.975133
0.980795
0.986335
0.99035
0.994514
0.992573
0.976285
0.915848
0.932646
0.946349
0.956789
0.965996
0.974549
0.982541
0.990245
1.00159
0.964524
0.868989
0.888196
0.908405
0.925505
0.9396
0.95102
0.963822
0.9718
1.02815
1.00699
1.0036
1.00678
1.00306
1.00396
1.00392
1.00392
1.00396
1.00306
1.00684
1.00355
0.996318
0.996946
0.996476
0.99835
0.99831
0.998303
0.998332
0.996472
0.99707
0.996278
0.994239
0.989818
0.993041
0.993916
0.993711
0.993703
0.9939
0.993062
0.98994
0.994165
0.99561
0.987859
0.99348
0.992835
0.992484
0.992477
0.992815
0.993496
0.987912
0.995507
0.996332
0.987419
0.994325
0.992664
0.992495
0.992484
0.99264
0.99433
0.987416
0.996197
0.996276
0.987475
0.994607
0.992421
0.992675
0.992664
0.99241
0.994608
0.987419
0.996113
0.996341
0.988129
0.994827
0.992359
0.99303
0.993033
0.992356
0.994822
0.988039
0.996147
0.996656
0.989271
0.99528
0.992657
0.99362
0.993635
0.992635
0.995263
0.989154
0.996425
0.997018
0.990526
0.995823
0.993166
0.994307
0.994332
0.993122
0.995792
0.990388
0.996743
0.997323
0.991671
0.996312
0.993723
0.994954
0.994988
0.993656
0.99626
0.991501
0.996994
0.997584
0.99268
0.996717
0.994265
0.995517
0.995563
0.994177
0.996645
0.992464
0.997188
0.997864
0.993556
0.997056
0.994782
0.996001
0.996066
0.99467
0.996974
0.993303
0.99735
0.998181
0.994295
0.997355
0.995276
0.99642
0.996504
0.995138
0.997274
0.994035
0.997484
0.998491
0.994939
0.997631
0.995743
0.996784
0.99689
0.995576
0.99753
0.994668
0.997597
0.998811
0.995506
0.997872
0.996174
0.997103
0.997229
0.99598
0.997744
0.995186
0.997719
0.99914
0.996015
0.998083
0.996566
0.997383
0.997528
0.996351
0.99794
0.995599
0.997852
0.999465
0.996485
0.998268
0.996922
0.997627
0.997792
0.996689
0.998113
0.995938
0.997946
0.999795
0.996916
0.998413
0.997233
0.997837
0.998021
0.996991
0.998261
0.996209
0.997985
1.0001
0.997313
0.998497
0.997489
0.998009
0.998216
0.997253
0.998379
0.996407
0.997963
1.00035
0.99767
0.998495
0.997676
0.998136
0.998371
0.997471
0.998461
0.996518
0.997863
1.00041
0.997985
0.998376
0.997765
0.998202
0.998477
0.997635
0.998491
0.99652
0.997648
1.00007
0.998215
0.998094
0.9977
0.998166
0.998503
0.997726
0.998447
0.996372
0.997259
0.999048
0.99818
0.997538
0.997369
0.997946
0.998391
0.997704
0.998288
0.996006
0.996581
0.996774
0.997457
0.996475
0.996541
0.997347
0.998008
0.997485
0.997951
0.995316
0.99542
0.992049
0.995051
0.994321
0.994721
0.995959
0.997078
0.99692
0.997364
0.994164
0.993343
0.982385
0.98881
0.989819
0.990963
0.992989
0.995008
0.99563
0.996381
0.992453
0.989796
0.964704
0.975479
0.980522
0.983504
0.987054
0.990756
0.992981
0.994863
0.990538
0.983001
0.938539
0.954286
0.964391
0.970174
0.975965
0.982089
0.987022
0.99156
0.990307
0.974345
0.897324
0.918463
0.93525
0.946394
0.956344
0.965999
0.97557
0.984364
0.997644
0.961884
0.841253
0.861999
0.883683
0.902664
0.919294
0.93329
0.948958
0.959285
1.01884
1.00384
0.999563
1.00354
0.999752
1.00048
1.00049
1.00049
1.00047
0.999751
1.00356
0.999502
0.994941
0.996229
0.995482
0.996924
0.996953
0.996949
0.996911
0.995479
0.996282
0.994863
0.999324
0.994121
0.997298
0.99815
0.998051
0.998044
0.998137
0.99732
0.994179
0.999164
1.0038
0.995502
1.00075
1.00041
1.00017
1.00017
1.00041
1.00078
0.99554
1.00362
1.00493
0.996245
1.00232
1.00113
1.00101
1.00102
1.00113
1.00236
0.996251
1.00477
1.00438
0.99621
1.00248
1.00084
1.00105
1.00106
1.00081
1.00249
0.996185
1.00424
1.00369
0.996285
1.00233
1.0004
1.00092
1.00092
1.00034
1.00231
0.996246
1.00355
1.00313
0.996594
1.00217
1.00003
1.00079
1.00079
0.999976
1.00211
0.996553
1.00296
1.00259
0.996935
1.00196
0.999713
1.00062
1.00063
0.999662
1.00187
0.996901
1.00238
1.00208
0.997196
1.00168
0.99942
1.00042
1.00045
0.999369
1.00157
0.997187
1.00181
1.00165
0.997393
1.0014
0.999184
1.00022
1.00027
0.999123
1.00127
0.997413
1.00132
1.00134
0.997592
1.00115
0.999035
1.00006
1.00012
0.998961
1.00101
0.997597
1.00095
1.00115
0.997803
1.00095
0.998959
0.999953
1.00002
0.998869
1.00079
0.997745
1.00067
1.00107
0.997988
1.00079
0.998937
0.99988
0.999948
0.99883
1.00063
0.99788
1.00045
1.00106
0.998164
1.00068
0.998957
0.999833
0.999911
0.99883
1.00052
0.998011
1.00027
1.00114
0.998336
1.00059
0.999006
0.999807
0.999896
0.998858
1.00041
0.998129
1.00012
1.00129
0.998508
1.00053
0.999074
0.999798
0.999903
0.998906
1.00035
0.998227
1
1.00151
0.998711
1.00046
0.999155
0.999807
0.999933
0.998978
1.00031
0.998307
0.999898
1.00177
0.998968
1.00038
0.999241
0.999834
0.999987
0.999073
1.00031
0.998372
0.999803
1.00201
0.999303
1.00025
0.999319
0.999872
1.00006
0.999187
1.00032
0.998416
0.9997
1.0021
0.999692
1.00003
0.999349
0.999908
1.00015
0.999317
1.00035
0.998425
0.999561
1.00178
1.00002
0.999672
0.999264
0.999903
1.00024
0.999455
1.00038
0.998377
0.999336
1.00056
1.00004
0.999016
0.998919
0.999737
1.00026
0.999571
1.00038
0.998225
0.998931
0.997625
0.999065
0.997764
0.998019
0.999164
1.00004
0.999579
1.00033
0.997894
0.998171
0.991554
0.995646
0.99513
0.995916
0.997636
0.999197
0.999284
1.00013
0.997283
0.996656
0.978891
0.986807
0.989419
0.991396
0.994135
0.996956
0.998183
0.999586
0.996313
0.993827
0.956443
0.969562
0.977877
0.982225
0.986839
0.991899
0.995403
0.998483
0.995517
0.988077
0.9308
0.949701
0.960418
0.966517
0.97347
0.981455
0.988469
0.994981
0.996607
0.980806
0.891475
0.913031
0.928948
0.938676
0.949842
0.962258
0.975339
0.987374
1.0071
0.97255
0.830338
0.844904
0.867103
0.887526
0.9061
0.922605
0.941913
0.955281
1.02751
1.02629
0.796223
0.807861
0.828249
0.851049
0.872427
0.890317
0.912997
0.922326
1.00061
1.02569
0.772118
0.781564
0.801179
0.824238
0.846327
0.865077
0.889211
0.899982
0.973527
1.04243
0.746545
0.754608
0.773582
0.795756
0.817122
0.83534
0.859294
0.873846
0.937826
1.04367
0.720011
0.726853
0.745426
0.766011
0.785548
0.802229
0.824242
0.841879
0.895171
1.0145
0.69286
0.698434
0.716639
0.73527
0.752523
0.766992
0.785738
0.803979
0.846119
0.963303
0.665355
0.669487
0.687123
0.703336
0.717744
0.729466
0.744495
0.761889
0.793162
0.899578
0.637674
0.640166
0.656753
0.67015
0.681372
0.689875
0.700737
0.716128
0.738647
0.829305
0.609907
0.610599
0.625533
0.635824
0.643689
0.648767
0.655397
0.667549
0.683243
0.756185
0.582101
0.580992
0.593688
0.600683
0.604899
0.606226
0.608326
0.616454
0.626368
0.68288
0.55439
0.551585
0.561513
0.564836
0.56457
0.561439
0.55877
0.562594
0.56745
0.609489
0.526872
0.522395
0.528923
0.527795
0.522378
0.514556
0.507558
0.507088
0.50765
0.537221
0.499427
0.493185
0.495489
0.489274
0.478852
0.46679
0.456105
0.451665
0.448646
0.468024
0.4718
0.463664
0.461193
0.44993
0.435076
0.419418
0.405696
0.397897
0.392004
0.403455
0.443759
0.433731
0.426504
0.410694
0.392044
0.373468
0.357425
0.347041
0.338983
0.344605
0.415243
0.403558
0.391948
0.372203
0.350431
0.329668
0.312019
0.299815
0.290203
0.2917
0.386479
0.373371
0.357858
0.334856
0.310678
0.28844
0.269821
0.25643
0.245706
0.244261
0.357658
0.343312
0.324459
0.298913
0.273047
0.249977
0.230891
0.216754
0.205179
0.201486
0.328824
0.313518
0.29194
0.264563
0.237705
0.214345
0.195154
0.180557
0.16834
0.16292
0.300073
0.284141
0.260484
0.231971
0.204784
0.181579
0.162594
0.147784
0.135158
0.128159
0.271596
0.255374
0.230289
0.201318
0.174397
0.151769
0.133186
0.118202
0.105392
0.0970783
0.24366
0.227437
0.201576
0.172786
0.146663
0.124848
0.106763
0.0918875
0.0793433
0.0702519
0.216574
0.200577
0.174568
0.146522
0.121615
0.100769
0.0835125
0.0692564
0.0575215
0.048285
0.19066
0.17505
0.149466
0.12266
0.0992246
0.0796706
0.0636699
0.0505656
0.0401017
0.0315243
0.166211
0.151106
0.126434
0.101304
0.0795603
0.0616465
0.0472976
0.0357925
0.0269155
0.0196266
0.14347
0.128965
0.105612
0.0824241
0.0626327
0.0466644
0.034274
0.024616
0.017437
0.0117083
0.122619
0.108795
0.0870934
0.0660003
0.0483804
0.0345808
0.0242832
0.0164929
0.0109412
0.00674057
0.103774
0.0906909
0.070893
0.0519968
0.0366856
0.0251367
0.0168673
0.0107972
0.00668101
0.00377979
0.0869721
0.0746972
0.0569101
0.0403027
0.027345
0.0179665
0.0115179
0.00693197
0.00399309
0.00207853
0.0721838
0.0608374
0.0450432
0.0307499
0.0200629
0.0126528
0.007751
0.00438628
0.00235115
0.00112324
0.0593305
0.0490773
0.0351684
0.0231204
0.0145251
0.00881633
0.00517105
0.00276656
0.00138356
0.000604138
0.809913
0.826895
0.849174
0.870933
0.890868
0.907148
0.926657
0.933517
1.00241
1.00276
0.787589
0.802541
0.82554
0.848364
0.869284
0.886426
0.907844
0.915471
0.982149
1.01437
0.76286
0.776202
0.800132
0.823763
0.84503
0.86211
0.883986
0.894726
0.954894
1.02022
0.736466
0.747855
0.772527
0.796622
0.817991
0.834705
0.855503
0.869199
0.920981
1.00575
0.708926
0.717818