/*--------------------------------*- C++ -*----------------------------------*\
| =========                 |                                                 |
| \\      /  F ield         | OpenFOAM: The Open Source CFD Toolbox           |
|  \\    /   O peration     | Version:  4.1                                   |
|   \\  /    A nd           | Web:      www.OpenFOAM.org                      |
|    \\/     M anipulation  |                                                 |
\*---------------------------------------------------------------------------*/
FoamFile
{
    version     2.0;
    format      ascii;
    class       volScalarField;
    location    "100";
    object      epsilon;
}
// * * * * * * * * * * * * * * * * * * * * * * * * * * * * * * * * * * * * * //

dimensions      [0 2 -3 0 0 0 0];

internalField   nonuniform List<scalar> 
12000
(
0.31981
0.312156
0.3109
0.3106
0.310526
0.310527
0.310603
0.310896
0.311999
0.319634
0.0651809
0.0637705
0.0628468
0.0624053
0.0622709
0.0622713
0.0624076
0.0628588
0.0638
0.0652499
0.0176586
0.017764
0.017381
0.0171474
0.017062
0.0170623
0.0171483
0.0173839
0.0177665
0.0176681
0.00615413
0.0063336
0.00621752
0.00611019
0.00606392
0.00606395
0.00610996
0.00621626
0.00633398
0.00615842
0.00263365
0.00274622
0.00272306
0.00267393
0.00264842
0.00264853
0.00267419
0.00272391
0.00274798
0.00263498
0.00132274
0.0013858
0.00139362
0.00136947
0.00135444
0.0013546
0.0013701
0.00139463
0.00138552
0.00132396
0.00075124
0.000795124
0.000803903
0.00079003
0.000781347
0.000781531
0.000790755
0.000805986
0.000797647
0.000752984
0.000466388
0.000493102
0.000505844
0.000499302
0.000491773
0.000491908
0.000499904
0.000506834
0.000492049
0.000468585
0.000310978
0.000332691
0.000342041
0.000337265
0.000332428
0.000332631
0.000337955
0.000342981
0.000332875
0.000313377
0.000219043
0.000236602
0.000242383
0.000240654
0.000236215
0.000236218
0.000240911
0.0002449
0.000237186
0.000221728
0.00016124
0.000176059
0.000181679
0.000179714
0.000177045
0.000177249
0.000180159
0.000183388
0.000176496
0.000164064
0.000122932
0.0001354
0.000140841
0.000139283
0.000137525
0.000137671
0.000139795
0.000142068
0.000136242
0.000125946
9.65252e-05
0.000107399
0.000112219
0.000111028
0.000109775
0.00010975
0.000111623
0.000113329
0.00010842
9.97491e-05
7.76226e-05
8.72915e-05
9.15312e-05
9.06434e-05
8.97486e-05
8.99295e-05
9.12473e-05
9.27184e-05
8.85599e-05
8.11042e-05
6.36404e-05
7.23689e-05
7.62117e-05
7.55761e-05
7.48591e-05
7.5068e-05
7.62315e-05
7.74762e-05
7.39709e-05
6.74458e-05
5.29946e-05
6.09717e-05
6.45675e-05
6.41367e-05
6.36276e-05
6.39126e-05
6.48494e-05
6.59608e-05
6.28744e-05
5.71731e-05
4.46771e-05
5.20846e-05
5.55106e-05
5.52415e-05
5.48837e-05
5.51711e-05
5.60293e-05
5.71006e-05
5.43222e-05
4.93161e-05
3.80152e-05
4.50109e-05
4.83329e-05
4.82183e-05
4.80191e-05
4.83643e-05
4.9137e-05
5.01193e-05
4.75877e-05
4.31789e-05
3.25379e-05
3.92331e-05
4.25045e-05
4.25449e-05
4.24687e-05
4.28207e-05
4.35719e-05
4.45817e-05
4.23147e-05
3.8383e-05
2.79088e-05
3.4442e-05
3.76893e-05
3.79107e-05
3.79871e-05
3.84072e-05
3.91073e-05
4.00776e-05
3.80594e-05
3.45357e-05
2.38721e-05
3.0312e-05
3.36259e-05
3.40402e-05
3.4199e-05
3.46477e-05
3.54106e-05
3.64662e-05
3.47556e-05
3.1547e-05
2.02202e-05
2.66572e-05
3.01473e-05
3.0782e-05
3.11084e-05
3.16756e-05
3.24073e-05
3.3444e-05
3.20229e-05
2.90979e-05
1.679e-05
2.32437e-05
2.70442e-05
2.79467e-05
2.83368e-05
2.89578e-05
2.98482e-05
3.10533e-05
2.99954e-05
2.73058e-05
1.34077e-05
1.99053e-05
2.41773e-05
2.54735e-05
2.61089e-05
2.68775e-05
2.77336e-05
2.89801e-05
2.82417e-05
2.58311e-05
9.95659e-06
1.63909e-05
2.13761e-05
2.31247e-05
2.38672e-05
2.47489e-05
2.58871e-05
2.74204e-05
2.70941e-05
2.49701e-05
6.225e-06
1.26223e-05
1.83994e-05
2.09334e-05
2.21246e-05
2.31654e-05
2.42371e-05
2.59559e-05
2.59939e-05
2.42783e-05
2.58542e-06
8.324e-06
1.50263e-05
1.83161e-05
1.9903e-05
2.12686e-05
2.27838e-05
2.4954e-05
2.54707e-05
2.43711e-05
1.35982e-06
4.46642e-06
1.07512e-05
1.55165e-05
1.80151e-05
1.96456e-05
2.10841e-05
2.3664e-05
2.50099e-05
2.45793e-05
2.09974e-06
3.59901e-06
5.78857e-06
9.4763e-06
1.43379e-05
1.74663e-05
1.94198e-05
2.26403e-05
2.48996e-05
2.53195e-05
4.29824e-06
6.29422e-06
6.72078e-06
7.31311e-06
8.24964e-06
1.1613e-05
1.6e-05
2.00171e-05
2.44809e-05
2.65858e-05
0.312153
0.709544
0.699196
0.698827
0.69878
0.69878
0.698827
0.6992
0.709774
0.312353
0.063767
0.052398
0.0361923
0.0357414
0.0357099
0.0357149
0.0357461
0.036198
0.0523387
0.0641991
0.0177609
0.00758434
0.00315327
0.00307084
0.00307134
0.00307267
0.00307209
0.00315163
0.00754067
0.0179124
0.00633119
0.00186549
0.000523382
0.000504801
0.000506506
0.000507625
0.00050776
0.000530912
0.00183164
0.0064083
0.00274421
0.000715371
0.000150264
0.000144228
0.000145925
0.000146769
0.000146716
0.000157474
0.000691266
0.00278357
0.00138415
0.000340625
7.05497e-05
6.68852e-05
7.06099e-05
7.17172e-05
6.93865e-05
7.86261e-05
0.000328427
0.00140626
0.000793523
0.000209185
4.49083e-05
4.96178e-05
4.74752e-05
4.8452e-05
5.17028e-05
5.1731e-05
0.000196876
0.000808765
0.000491777
0.000141392
3.45502e-05
3.48685e-05
3.5246e-05
3.57233e-05
3.59968e-05
3.80639e-05
0.000133548
0.000498583
0.000331388
0.00010337
3.00362e-05
2.7881e-05
2.85834e-05
2.88977e-05
2.83803e-05
3.07609e-05
9.74813e-05
0.000336123
0.00023541
6.1531e-05
1.54508e-05
1.47925e-05
1.5982e-05
1.59557e-05
1.52385e-05
1.59496e-05
5.71157e-05
0.000239211
0.000174854
6.29025e-05
2.71963e-05
2.27272e-05
2.02414e-05
2.07343e-05
2.25563e-05
2.3258e-05
5.28908e-05
0.00017757
0.000134171
4.51752e-05
1.73289e-05
2.04274e-05
1.40045e-05
1.49712e-05
1.47063e-05
1.47529e-05
4.00737e-05
0.00013683
0.000106127
3.592e-05
1.06326e-05
1.35519e-05
1.13494e-05
1.19165e-05
1.0502e-05
9.84312e-06
3.15623e-05
0.000108906
8.59627e-05
3.13292e-05
9.25714e-06
9.46774e-06
9.29716e-06
1.01126e-05
8.78804e-06
8.26321e-06
2.80524e-05
8.91536e-05
7.09664e-05
2.70272e-05
7.78341e-06
7.79143e-06
7.50771e-06
8.3428e-06
7.99447e-06
7.37921e-06
2.41951e-05
7.46687e-05
5.9471e-05
2.35675e-05
6.64598e-06
6.98237e-06
6.36153e-06
7.23679e-06
7.2714e-06
6.65574e-06
2.12463e-05
6.37138e-05
5.04716e-05
2.10193e-05
6.08847e-06
6.15975e-06
5.62479e-06
6.35822e-06
6.55596e-06
6.20272e-06
1.87008e-05
5.5117e-05
4.32682e-05
1.90194e-05
5.83342e-06
5.62539e-06
5.10775e-06
5.59916e-06
6.08999e-06
5.84426e-06
1.64833e-05
4.83981e-05
3.73577e-05
1.73937e-05
5.69007e-06
5.25239e-06
4.74616e-06
5.06844e-06
5.64982e-06
5.50924e-06
1.45275e-05
4.28784e-05
3.24318e-05
1.63508e-05
5.42549e-06
4.96082e-06
4.46733e-06
4.60769e-06
5.25741e-06
5.20329e-06
1.28428e-05
3.85532e-05
2.81989e-05
1.55656e-05
5.46454e-06
4.73377e-06
4.24055e-06
4.29292e-06
4.97507e-06
4.94846e-06
1.14174e-05
3.48425e-05
2.44739e-05
1.53068e-05
5.62039e-06
4.57948e-06
4.11021e-06
4.0415e-06
4.73742e-06
4.73404e-06
1.01785e-05
3.19993e-05
2.10951e-05
1.53416e-05
5.89675e-06
4.5185e-06
4.01249e-06
3.86272e-06
4.57692e-06
4.60832e-06
9.19746e-06
2.93934e-05
1.78969e-05
1.55659e-05
6.54231e-06
4.61102e-06
4.0685e-06
3.86314e-06
4.39845e-06
4.54e-06
8.29774e-06
2.74922e-05
1.47701e-05
1.55371e-05
7.67927e-06
4.82783e-06
4.17736e-06
3.92387e-06
4.412e-06
4.54478e-06
7.75652e-06
2.55154e-05
1.15766e-05
1.62251e-05
9.1308e-06
5.38299e-06
4.53111e-06
4.14122e-06
4.48099e-06
4.8488e-06
7.08892e-06
2.41471e-05
8.3253e-06
1.69585e-05
1.11712e-05
6.25133e-06
5.00608e-06
4.54551e-06
4.81304e-06
5.00324e-06
7.3409e-06
2.2445e-05
5.18167e-06
1.87851e-05
1.36982e-05
7.89573e-06
6.03524e-06
5.16321e-06
5.22147e-06
5.92166e-06
7.72884e-06
2.11066e-05
3.66597e-06
2.17999e-05
1.85797e-05
1.0565e-05
7.56011e-06
6.51421e-06
6.4638e-06
6.746e-06
9.63996e-06
2.00488e-05
3.88941e-06
2.45731e-05
2.55563e-05
1.73289e-05
1.07612e-05
8.21644e-06
8.15561e-06
8.66148e-06
1.44639e-05
1.94364e-05
0.310898
0.699199
0.681787
0.681451
0.681394
0.681389
0.681451
0.681785
0.699304
0.311336
0.0628437
0.0362044
0.0204414
0.0198744
0.0200933
0.019811
0.0199214
0.0204302
0.0361358
0.0633419
0.017378
0.00315817
0.000699374
0.000470856
0.000615169
0.000452013
0.000497598
0.000692726
0.00315178
0.0175445
0.00621488
0.000525109
3.52259e-06
2.35697e-06
7.5997e-06
1.9637e-06
2.3184e-06
3.58757e-06
0.000519726
0.00629539
0.00272075
0.000153312
1.16567e-07
7.55888e-07
3.02756e-07
5.29486e-07
4.17554e-07
1.01721e-07
0.000147286
0.00275731
0.00139212
6.91186e-05
8.184e-08
2.35975e-07
2.17249e-07
2.79434e-07
2.06785e-07
9.32607e-08
6.51586e-05
0.00140937
0.000801103
5.06611e-05
1.89251e-07
2.18243e-07
1.87164e-07
1.92288e-07
2.30607e-07
2.27633e-07
4.33446e-05
0.00081187
0.000505482
3.68401e-05
4.1725e-07
2.78889e-07
1.04931e-07
2.78689e-07
3.69454e-07
3.3241e-07
3.25446e-05
0.000511912
0.000340265
3.14717e-05
4.07131e-07
2.74577e-07
2.22805e-07
3.56302e-07
1.81806e-07
4.32302e-07
2.42083e-05
0.000345435
0.000242472
1.6528e-05
5.90149e-07
2.87858e-07
2.68933e-07
3.51689e-07
5.33692e-07
2.72167e-07
1.89757e-05
0.000246693
0.000180944
2.69969e-05
9.58182e-07
1.7145e-07
1.88186e-07
2.20031e-07
5.67116e-07
4.54897e-07
9.79857e-06
0.000183592
0.000139828
1.77845e-05
5.81675e-07
4.22419e-07
2.60654e-07
3.08021e-07
3.40773e-07
3.93464e-07
1.45053e-05
0.000142127
0.000111042
1.27323e-05
5.407e-07
2.75568e-07
1.70648e-07
2.44097e-07
2.95432e-07
2.48911e-07
1.00726e-05
0.000113149
9.02561e-05
1.09978e-05
3.90403e-07
1.7694e-07
1.13059e-07
1.58414e-07
1.95409e-07
1.96947e-07
8.20166e-06
9.23977e-05
7.48808e-05
1.0178e-05
3.59197e-07
1.37752e-07
8.85303e-08
1.04365e-07
1.34535e-07
1.93129e-07
6.76639e-06
7.71283e-05
6.30618e-05
9.45077e-06
3.32655e-07
1.21096e-07
7.91776e-08
8.4376e-08
1.18841e-07
1.84336e-07
6.47437e-06
6.56406e-05
5.38242e-05
8.95595e-06
3.56593e-07
1.24063e-07
7.61151e-08
8.14904e-08
1.11841e-07
1.65535e-07
6.00544e-06
5.66367e-05
4.64063e-05
8.71394e-06
4.10408e-07
1.30593e-07
7.73665e-08
8.22331e-08
1.14948e-07
1.55548e-07
5.5607e-06
4.9717e-05
4.03296e-05
8.48969e-06
4.88642e-07
1.33787e-07
8.21427e-08
7.94631e-08
1.2072e-07
1.53113e-07
5.0958e-06
4.38836e-05
3.52289e-05
8.53741e-06
5.90689e-07
1.46466e-07
8.71648e-08
8.08455e-08
1.24475e-07
1.55405e-07
4.62875e-06
3.9423e-05
3.08711e-05
8.69981e-06
7.0941e-07
1.60155e-07
9.76389e-08
7.84224e-08
1.31028e-07
1.57181e-07
4.15054e-06
3.53455e-05
2.70254e-05
8.94941e-06
9.09213e-07
1.85297e-07
1.08302e-07
8.2965e-08
1.37726e-07
1.61235e-07
3.70938e-06
3.23856e-05
2.35707e-05
9.44251e-06
1.10432e-06
2.18605e-07
1.2513e-07
9.1147e-08
1.45522e-07
1.66473e-07
3.25904e-06
2.92845e-05
2.03657e-05
9.9603e-06
1.48249e-06
2.83004e-07
1.49009e-07
1.07187e-07
1.55357e-07
1.7858e-07
2.84643e-06
2.72729e-05
1.7369e-05
1.09014e-05
1.86423e-06
3.88712e-07
1.83302e-07
1.3131e-07
1.70384e-07
1.88926e-07
2.45395e-06
2.46532e-05
1.45085e-05
1.20037e-05
2.64166e-06
5.47188e-07
2.44315e-07
1.60559e-07
1.90498e-07
2.17067e-07
2.06263e-06
2.31049e-05
1.17559e-05
1.26499e-05
4.03937e-06
8.65701e-07
3.49185e-07
2.11452e-07
2.28812e-07
2.47397e-07
1.76437e-06
2.06867e-05
9.05729e-06
1.35976e-05
6.19154e-06
1.43205e-06
5.31044e-07
3.07124e-07
2.86444e-07
3.13323e-07
1.45647e-06
1.8805e-05
6.70422e-06
1.51151e-05
8.62203e-06
2.55673e-06
9.01015e-07
4.79459e-07
4.1483e-07
4.27545e-07
1.41651e-06
1.58145e-05
5.1076e-06
1.70316e-05
1.26684e-05
4.63225e-06
1.76964e-06
8.03794e-07
6.22023e-07
6.06021e-07
1.87837e-06
1.30485e-05
0.310598
0.698831
0.681453
0.681106
0.681045
0.681047
0.681109
0.681452
0.698931
0.311056
0.0624021
0.0357546
0.0199081
0.0195623
0.0198865
0.0194762
0.019531
0.0200355
0.0356833
0.0628974
0.0171443
0.0030753
0.000492065
0.000425555
0.000647664
0.000378868
0.000391041
0.000565431
0.00306907
0.0173043
0.00610728
0.000507092
2.29304e-06
1.16714e-06
2.90176e-05
1.1982e-06
1.11703e-06
1.38671e-06
0.000501404
0.0061832
0.00267153
0.000145837
5.96645e-07
7.26225e-10
2.70003e-08
3.18328e-09
6.44186e-09
3.00901e-08
0.000140711
0.0027049
0.00136733
6.84255e-05
2.75694e-07
7.60509e-11
5.34179e-09
2.75074e-10
4.12225e-11
2.1102e-08
6.4575e-05
0.00138316
0.000788061
5.15112e-05
2.79082e-07
9.72383e-10
2.22085e-09
1.3628e-10
1.252e-10
2.40197e-08
4.11299e-05
0.00079761
0.000497579
3.6033e-05
2.73129e-07
1.56405e-09
1.17676e-09
4.54449e-10
2.54602e-10
2.24402e-08
3.18469e-05
0.00050237
0.000335813
2.8846e-05
3.7789e-07
1.12358e-09
7.31331e-10
5.77742e-10
2.48429e-10
3.04753e-08
2.69334e-05
0.000339604
0.000238746
1.62079e-05
1.90459e-07
5.68695e-09
4.20238e-10
3.94512e-10
7.0398e-10
3.50136e-08
1.49186e-05
0.000241828
0.000178117
2.22782e-05
5.7137e-07
4.62528e-09
1.74996e-10
2.75145e-10
6.23716e-10
5.49694e-08
2.15972e-05
0.000181135
0.00013766
1.57105e-05
5.01642e-07
5.51367e-09
3.56905e-10
9.05967e-10
4.29185e-10
1.58242e-08
1.44215e-05
0.000140926
0.000109385
1.16173e-05
4.10881e-07
4.3842e-09
7.64715e-10
6.76419e-10
4.28359e-10
6.86014e-09
1.00272e-05
0.000112897
8.88959e-05
9.94637e-06
2.92631e-07
5.81522e-09
6.78735e-10
2.57077e-10
5.30403e-10
4.95089e-09
7.95464e-06
9.25784e-05
7.36853e-05
9.23416e-06
2.58711e-07
4.60117e-09
5.3655e-10
2.55049e-10
4.01048e-10
8.06716e-09
7.06719e-06
7.74301e-05
6.20806e-05
8.53104e-06
2.48661e-07
4.33889e-09
3.99701e-10
2.36029e-10
5.20394e-10
7.19076e-09
6.13318e-06
6.60281e-05
5.29711e-05
8.11914e-06
2.66921e-07
5.29054e-09
5.84596e-10
2.3069e-10
5.74071e-10
1.29164e-08
5.44681e-06
5.69984e-05
4.56651e-05
7.90934e-06
3.21439e-07
7.61762e-09
5.85904e-10
2.45689e-10
1.37324e-10
1.64292e-08
4.93944e-06
5.00971e-05
3.9679e-05
7.69689e-06
3.74649e-07
1.11716e-08
6.72354e-10
1.74438e-10
2.18721e-10
1.91318e-08
4.44888e-06
4.42193e-05
3.46452e-05
7.75689e-06
4.71873e-07
1.75762e-08
1.20877e-09
3.93525e-10
3.62644e-10
2.20769e-08
4.06962e-06
3.98148e-05
3.03491e-05
7.94098e-06
5.69291e-07
2.65875e-08
1.25889e-09
3.53884e-10
6.26269e-10
2.27766e-08
3.64954e-06
3.56678e-05
2.6568e-05
8.22151e-06
7.47854e-07
4.29359e-08
3.56785e-09
7.497e-10
8.20116e-10
2.32447e-08
3.30234e-06
3.27724e-05
2.31974e-05
8.78944e-06
9.29575e-07
6.58925e-08
4.45779e-09
6.03592e-10
1.07054e-09
2.24692e-08
2.88115e-06
2.95811e-05
2.00882e-05
9.37003e-06
1.26161e-06
1.08693e-07
1.25897e-08
2.31821e-09
1.65404e-09
2.16466e-08
2.55971e-06
2.76235e-05
1.72095e-05
1.02167e-05
1.62153e-06
1.80321e-07
1.72363e-08
2.64047e-09
1.87916e-09
2.02803e-08
2.14182e-06
2.49356e-05
1.44916e-05
1.14294e-05
2.19792e-06
2.82678e-07
4.42664e-08
7.85612e-09
3.96833e-09
1.83382e-08
1.85601e-06
2.34461e-05
1.19068e-05
1.18924e-05
3.57047e-06
5.23207e-07
6.81401e-08
1.11315e-08
3.29582e-09
1.69094e-08
1.44098e-06
2.08126e-05
9.43681e-06
1.252e-05
5.19219e-06
9.62358e-07
1.68893e-07
3.59254e-08
1.40144e-08
1.58047e-08
1.22491e-06
1.91564e-05
7.14229e-06
1.33232e-05
7.00163e-06
1.57151e-06
3.06567e-07
6.14242e-08
1.90279e-08
2.44357e-08
8.52775e-07
1.55653e-05
5.10844e-06
1.42759e-05
9.27064e-06
2.77948e-06
6.73457e-07
1.78665e-07
6.2387e-08
2.83617e-08
8.98849e-07
1.27954e-05
0.310524
0.698784
0.681394
0.681045
0.680983
0.680982
0.681044
0.681393
0.698885
0.310983
0.0622672
0.035727
0.0198445
0.0198957
0.0198638
0.0198517
0.0195317
0.0199709
0.0356554
0.0627611
0.0170584
0.00307474
0.000474713
0.000650941
0.000658949
0.000648145
0.000427039
0.000543578
0.00306891
0.0172165
0.0060605
0.000509644
3.22638e-06
1.60933e-05
7.30312e-06
2.00304e-05
1.07436e-06
1.44133e-06
0.000503592
0.00613477
0.00264572
0.00014817
1.18264e-06
1.78698e-06
4.02915e-07
3.25702e-06
2.8905e-09
3.96114e-08
0.000143002
0.00267822
0.00135206
7.07616e-05
4.04238e-07
1.31359e-08
1.05636e-11
2.52948e-11
8.86282e-12
2.97144e-08
6.49879e-05
0.00136756
0.000778464
5.32689e-05
2.91224e-07
9.4705e-10
2.64442e-11
6.36994e-14
3.68741e-12
2.30109e-08
4.64857e-05
0.000787186
0.000491012
3.68371e-05
2.81868e-07
2.68022e-10
6.47559e-13
1.31393e-13
5.23034e-13
1.66224e-08
3.40682e-05
0.000496866
0.000331314
2.88697e-05
3.19051e-07
9.25406e-10
1.85502e-13
1.23252e-13
2.81823e-12
3.23134e-08
2.41955e-05
0.000335486
0.000235329
1.63104e-05
3.37999e-07
8.60263e-10
9.29313e-14
7.87578e-14
8.45372e-12
3.96465e-08
1.87937e-05
0.00023992
0.000175598
2.09329e-05
2.19892e-07
1.35188e-09
3.12545e-13
7.98639e-14
1.29718e-12
1.07827e-08
8.78159e-06
0.000179425
0.00013576
1.45623e-05
3.59168e-07
1.82098e-09
3.13722e-12
3.93241e-13
7.89825e-12
4.69304e-08
1.49708e-05
0.000139381
0.000107936
1.20804e-05
2.92227e-07
1.82756e-09
5.19796e-12
5.30013e-13
2.64262e-12
1.26893e-08
9.99381e-06
0.000111507
8.7768e-05
1.04794e-05
2.1685e-07
1.28627e-09
3.84046e-12
4.75257e-14
1.36448e-12
7.37898e-09
7.05298e-06
9.13796e-05
7.27756e-05
9.1727e-06
1.91017e-07
2.80109e-09
2.76793e-11
7.61819e-14
1.93063e-12
7.30583e-09
5.769e-06
7.63327e-05
6.13695e-05
8.28833e-06
2.04455e-07
2.91366e-09
2.00837e-11
5.62662e-13
1.60317e-12
5.711e-09
5.21304e-06
6.50734e-05
5.23995e-05
7.71608e-06
2.26036e-07
4.28682e-09
8.06828e-11
1.02779e-12
2.23346e-12
6.77327e-09
4.60133e-06
5.61037e-05
4.52276e-05
7.49013e-06
2.7928e-07
6.35551e-09
1.09935e-10
1.43762e-12
2.23701e-12
7.26618e-09
4.08648e-06
4.92546e-05
3.9315e-05
7.36206e-06
3.24721e-07
9.40443e-09
2.72585e-10
4.54262e-12
7.53541e-12
9.48992e-09
3.75374e-06
4.34344e-05
3.43564e-05
7.33693e-06
4.15737e-07
1.46891e-08
2.69614e-10
5.74369e-12
8.01497e-12
1.26027e-08
3.36996e-06
3.90758e-05
3.01089e-05
7.47363e-06
4.9911e-07
2.16735e-08
1.26793e-09
6.555e-11
2.60085e-11
1.41214e-08
2.99835e-06
3.49882e-05
2.63737e-05
7.76549e-06
6.60165e-07
3.55487e-08
1.51189e-09
2.14632e-11
1.88943e-11
1.55326e-08
2.74898e-06
3.21595e-05
2.30377e-05
8.27273e-06
8.36511e-07
5.72343e-08
5.16799e-09
3.71115e-10
5.60017e-11
1.67719e-08
2.46623e-06
2.90628e-05
1.99581e-05
8.84044e-06
1.12546e-06
9.26086e-08
6.49041e-09
1.09766e-10
2.26319e-11
1.62473e-08
2.27139e-06
2.71799e-05
1.71009e-05
9.67939e-06
1.49717e-06
1.58356e-07
1.87792e-08
2.17483e-09
2.40409e-10
1.58951e-08
1.95218e-06
2.45624e-05
1.43885e-05
1.09951e-05
1.99385e-06
2.48852e-07
2.63395e-08
2.33881e-09
4.43017e-10
1.43779e-08
1.73573e-06
2.31139e-05
1.18046e-05
1.16544e-05
3.37151e-06
4.87124e-07
7.68427e-08
1.31885e-08
1.33128e-09
1.22862e-08
1.36501e-06
2.05427e-05
9.27832e-06
1.23034e-05
4.9771e-06
9.00043e-07
1.33486e-07
1.90625e-08
2.32162e-09
9.43056e-09
1.17185e-06
1.87497e-05
6.9377e-06
1.32692e-05
6.87496e-06
1.50017e-06
3.00472e-07
6.72493e-08
1.24612e-08
7.69675e-09
8.14791e-07
1.53825e-05
4.74369e-06
1.42036e-05
9.19603e-06
2.71845e-06
6.24975e-07
1.45414e-07
3.3001e-08
2.46394e-08
8.59358e-07
1.24446e-05
0.310525
0.698783
0.681394
0.681042
0.680981
0.680979
0.681044
0.681394
0.698885
0.310982
0.0622671
0.035725
0.0200103
0.0194888
0.0195398
0.0194891
0.0198989
0.01976
0.0356593
0.0627603
0.0170582
0.00307532
0.000563898
0.000401801
0.000444288
0.000424262
0.000652765
0.000403612
0.00306997
0.0172157
0.00606035
0.00051066
1.43357e-06
9.95129e-07
4.39912e-05
1.17892e-06
9.25011e-06
1.09458e-05
0.000504681
0.00613375
0.00264554
0.000148101
4.23138e-08
1.69999e-10
1.69368e-05
1.17532e-08
6.78101e-07
2.04959e-06
0.000144675
0.00267752
0.00135185
7.35266e-05
4.14386e-08
1.3064e-11
7.90004e-06
9.2929e-10
4.02501e-11
7.95892e-07
6.62598e-05
0.00136724
0.000779308
5.0111e-05
6.78872e-08
5.43052e-12
2.77024e-06
4.75278e-11
7.33642e-12
4.90225e-07
4.83849e-05
0.000787033
0.000489557
3.69911e-05
1.73594e-07
1.2219e-11
1.12359e-09
1.03456e-13
1.70418e-10
2.65133e-07
3.39271e-05
0.000496724
0.000330748
3.00595e-05
8.33391e-08
1.26425e-11
3.42258e-13
2.12121e-13
1.35598e-10
1.38131e-07
2.66013e-05
0.000335596
0.000233899
1.67104e-05
6.26924e-07
2.04377e-11
8.69652e-15
2.60545e-13
1.16029e-10
9.90882e-08
1.41219e-05
0.000239503
0.0001752
2.21932e-05
5.35922e-07
4.3738e-11
1.27755e-14
1.509e-13
6.04892e-11
1.05517e-07
2.12343e-05
0.000178997
0.000135624
1.5509e-05
3.39122e-07
3.14725e-11
1.75426e-14
1.60322e-13
6.63995e-11
1.02563e-07
1.53179e-05
0.00013925
0.000107704
1.28077e-05
2.2354e-07
3.5417e-10
7.43741e-14
1.14474e-13
7.70998e-11
6.99653e-08
1.0413e-05
0.00011133
8.755e-05
1.08756e-05
1.71002e-07
1.06452e-09
7.23281e-13
1.48829e-13
1.22546e-10
7.15329e-08
8.47848e-06
9.11802e-05
7.26798e-05
9.35239e-06
1.77059e-07
1.76138e-09
1.41025e-11
3.36922e-13
1.56093e-10
7.88217e-08
7.34394e-06
7.62719e-05
6.12857e-05
8.76252e-06
2.02536e-07
1.88344e-09
8.93012e-12
7.56253e-13
1.43636e-10
4.74973e-08
6.39471e-06
6.50232e-05
5.23733e-05
8.27059e-06
2.48858e-07
4.32722e-09
5.22739e-11
1.00243e-12
1.83865e-10
8.51584e-08
5.5946e-06
5.61526e-05
4.52143e-05
8.01934e-06
2.80198e-07
3.8728e-09
4.27869e-11
1.5624e-12
1.36577e-10
7.77792e-08
5.01721e-06
4.93618e-05
3.93244e-05
7.91753e-06
3.40415e-07
1.0833e-08
1.97012e-10
3.97788e-12
1.57969e-10
7.33396e-08
4.52498e-06
4.3577e-05
3.4388e-05
7.98306e-06
4.33556e-07
1.24685e-08
5.37878e-11
6.17264e-12
1.61647e-10
6.79246e-08
4.10503e-06
3.92398e-05
3.01495e-05
8.07778e-06
5.56116e-07
2.61987e-08
6.70712e-10
1.31006e-10
1.85878e-10
5.53863e-08
3.67629e-06
3.51605e-05
2.64428e-05
8.38779e-06
6.75621e-07
3.46908e-08
1.55432e-09
1.1111e-10
1.87096e-10
5.70861e-08
3.30124e-06
3.23089e-05
2.30945e-05
8.81333e-06
8.62113e-07
5.88351e-08
1.02913e-09
2.82589e-10
2.19752e-10
5.33384e-08
2.87913e-06
2.91685e-05
2.00057e-05
9.29182e-06
1.17676e-06
9.12918e-08
8.08536e-09
7.07454e-10
2.79558e-10
4.76388e-08
2.53559e-06
2.72423e-05
1.71345e-05
1.00007e-05
1.51717e-06
1.53185e-07
1.04516e-08
5.54362e-11
3.23161e-10
3.90528e-08
2.12566e-06
2.4603e-05
1.44182e-05
1.11564e-05
2.1589e-06
2.76591e-07
3.51154e-08
4.78526e-09
6.58556e-10
3.24258e-08
1.82617e-06
2.31502e-05
1.18345e-05
1.1731e-05
3.38554e-06
4.59797e-07
5.35377e-08
5.78167e-09
9.21547e-10
2.37262e-08
1.4294e-06
2.05613e-05
9.31904e-06
1.23579e-05
5.03752e-06
9.35922e-07
1.55522e-07
2.93361e-08
4.95767e-09
1.56034e-08
1.19687e-06
1.887e-05
6.9874e-06
1.32959e-05
6.91799e-06
1.52983e-06
2.79585e-07
4.81705e-08
3.38253e-09
1.80502e-08
8.3775e-07
1.53211e-05
4.8111e-06
1.42701e-05
9.2881e-06
2.77051e-06
6.63691e-07
1.67239e-07
4.62003e-08
1.75107e-08
8.6359e-07
1.24475e-05
0.3106
0.69883
0.681453
0.68111
0.681044
0.681041
0.681108
0.681453
0.698931
0.311055
0.0624028
0.0357571
0.0199223
0.0196715
0.0198942
0.0197333
0.019882
0.019814
0.03569
0.0628958
0.0171438
0.00307788
0.000486369
0.000485026
0.000650455
0.000547469
0.000608308
0.000418409
0.00307053
0.0173017
0.00610625
0.000510219
1.24007e-06
1.74081e-06
1.44566e-05
0.000173817
6.25077e-06
2.02783e-05
0.000504478
0.00617985
0.00267084
0.000147477
3.85101e-08
1.48089e-09
1.61059e-06
0.000122233
3.16084e-07
2.72082e-06
0.000144815
0.00270263
0.00136698
7.33926e-05
4.77591e-08
3.83307e-12
1.54723e-09
3.3191e-07
2.32427e-08
6.85995e-07
6.62731e-05
0.0013825
0.000789
4.99758e-05
6.32999e-08
1.33837e-11
5.17357e-12
2.61616e-08
9.49405e-10
3.16393e-07
4.59763e-05
0.000796824
0.000496067
3.7144e-05
2.15992e-07
2.0825e-11
1.08942e-12
9.82505e-09
2.169e-11
1.75839e-07
3.62972e-05
0.000501807
0.000335104
3.04283e-05
3.09287e-07
1.98333e-11
7.10964e-13
3.67483e-09
3.16945e-11
1.07802e-07
2.5747e-05
0.00034031
0.000237256
1.69017e-05
2.0362e-07
1.20368e-10
1.30753e-12
8.94925e-10
1.18986e-10
1.72375e-07
2.02187e-05
0.000242409
0.000177665
2.34382e-05
4.72715e-07
1.36331e-10
1.24413e-12
3.47535e-10
3.61716e-11
1.49818e-07
9.90872e-06
0.000181459
0.00013748
1.62927e-05
3.16425e-07
3.18025e-10
5.16002e-12
2.61997e-10
1.26797e-10
1.78525e-07
1.51058e-05
0.000141038
0.000109201
1.19767e-05
2.01705e-07
5.30655e-10
8.48068e-12
1.34978e-10
6.50222e-11
7.86679e-08
1.01059e-05
0.000112855
8.87143e-05
1.03972e-05
1.8798e-07
8.01157e-10
7.01247e-12
1.70702e-10
6.20648e-11
1.06222e-07
8.24954e-06
9.26081e-05
7.35849e-05
9.75721e-06
1.88162e-07
1.87117e-09
1.45678e-11
2.21053e-10
1.02694e-10
7.60098e-08
7.07932e-06
7.74397e-05
6.19779e-05
9.22944e-06
2.26643e-07
1.95977e-09
3.75417e-11
2.40094e-10
6.74112e-11
5.9959e-08
6.04147e-06
6.60683e-05
5.29143e-05
8.88783e-06
2.80072e-07
4.9859e-09
1.08725e-10
2.84491e-10
1.87241e-10
6.32379e-08
5.06643e-06
5.69996e-05
4.56421e-05
8.89778e-06
3.40083e-07
5.01837e-09
1.08739e-10
3.21829e-10
1.77886e-10
4.92843e-08
4.40494e-06
5.00679e-05
3.96746e-05
8.4699e-06
4.12901e-07
1.22149e-08
6.39699e-10
3.90141e-10
3.50553e-10
5.04039e-08
3.93482e-06
4.41765e-05
3.46639e-05
8.52924e-06
5.16192e-07
1.73093e-08
1.54006e-10
4.77e-10
3.91149e-10
5.31836e-08
3.54496e-06
3.9729e-05
3.03919e-05
8.74659e-06
6.28098e-07
2.71745e-08
1.68812e-09
5.32642e-10
5.56154e-10
5.14905e-08
3.2256e-06
3.55872e-05
2.66399e-05
9.09197e-06
8.28228e-07
4.50793e-08
1.12393e-09
8.32706e-10
6.97107e-10
4.82566e-08
2.93477e-06
3.26474e-05
2.32787e-05
9.54444e-06
1.02942e-06
6.8835e-08
7.05688e-09
9.52494e-10
9.42092e-10
4.42192e-08
2.63452e-06
2.94962e-05
2.01612e-05
1.00088e-05
1.38223e-06
1.18062e-07
7.9782e-09
2.18249e-09
1.27118e-09
3.94446e-08
2.33457e-06
2.74508e-05
1.72665e-05
1.07371e-05
1.74969e-06
1.90328e-07
2.4821e-08
2.71057e-09
1.85538e-09
3.39072e-08
1.98006e-06
2.4759e-05
1.45418e-05
1.17233e-05
2.35267e-06
3.21441e-07
3.42262e-08
7.91338e-09
2.67052e-09
2.77876e-08
1.6892e-06
2.31348e-05
1.19584e-05
1.20596e-05
3.71091e-06
5.28514e-07
8.87052e-08
1.12682e-08
5.16971e-09
2.1767e-08
1.29417e-06
2.04785e-05
9.50288e-06
1.26587e-05
5.33244e-06
1.03418e-06
1.60788e-07
3.66434e-08
8.92067e-09
1.9915e-08
1.06994e-06
1.89159e-05
7.22326e-06
1.34248e-05
7.12109e-06
1.62145e-06
3.50726e-07
6.50036e-08
1.85466e-08
2.40539e-08
7.74491e-07
1.53537e-05
5.22073e-06
1.44446e-05
9.46352e-06
2.92933e-06
7.11254e-07
1.8908e-07
5.37791e-08
3.04807e-08
8.91198e-07
1.27304e-05
0.310893
0.699203
0.681784
0.681451
0.681392
0.681392
0.681452
0.681788
0.699302
0.311339
0.0628539
0.0362113
0.0204264
0.019997
0.0199777
0.0197644
0.0200041
0.0204299
0.0361444
0.0633475
0.0173795
0.00315598
0.000691601
0.000540906
0.00054803
0.000407575
0.000546828
0.000674376
0.00314587
0.0175415
0.00621259
0.000533153
3.61585e-06
1.51517e-06
1.40425e-06
1.62985e-05
1.47795e-06
3.36451e-06
0.000528108
0.00628872
0.00272007
0.000161542
1.10343e-07
2.68566e-08
4.21334e-08
2.18582e-06
3.12535e-08
1.48991e-07
0.000155678
0.00275254
0.00139206
7.7556e-05
9.04715e-08
1.20813e-08
2.72036e-08
3.51073e-07
2.93643e-08
2.05989e-07
7.485e-05
0.00140774
0.000802016
5.69141e-05
2.21131e-07
1.00568e-08
1.33479e-08
1.61686e-07
3.13573e-08
3.06503e-07
4.98084e-05
0.00081177
0.000505992
3.8903e-05
3.8276e-07
6.4179e-09
1.40562e-08
1.84686e-07
2.31444e-08
6.04181e-07
3.7265e-05
0.000510121
0.000340252
3.11309e-05
4.48816e-07
7.76081e-09
7.30391e-09
2.54926e-07
3.99532e-08
5.67284e-07
3.0322e-05
0.000344721
0.000242612
1.66876e-05
2.60908e-07
8.40595e-09
9.74507e-09
1.91012e-07
4.99435e-08
4.34332e-07
1.66218e-05
0.000244222
0.0001811
2.46979e-05
6.75935e-07
9.71457e-08
6.88272e-09
2.33366e-07
2.30117e-08
4.23108e-07
2.41158e-05
0.000183077
0.00013984
1.58256e-05
6.06074e-07
3.21297e-08
1.9409e-08
1.41538e-07
5.18016e-08
2.86066e-07
1.53342e-05
0.00014203
0.000110976
1.09154e-05
5.08736e-07
2.4975e-08
1.92663e-08
1.08522e-07
2.42106e-08
2.52213e-07
1.05555e-05
0.000113141
9.01595e-05
9.28533e-06
3.76931e-07
1.95131e-08
1.52581e-08
8.53243e-08
1.58098e-08
2.50812e-07
8.73385e-06
9.24621e-05
7.47486e-05
8.22153e-06
3.03841e-07
2.32131e-08
1.71027e-08
7.97993e-08
2.14302e-08
2.30339e-07
7.87472e-06
7.72192e-05
6.29377e-05
8.02909e-06
3.02872e-07
2.11898e-08
3.21133e-08
7.86495e-08
2.14014e-08
2.28369e-07
7.16656e-06
6.57486e-05
5.36998e-05
7.81012e-06
3.21208e-07
4.01776e-08
3.97843e-08
7.79326e-08
3.03858e-08
2.10246e-07
6.368e-06
5.66995e-05
4.62734e-05
7.69372e-06
3.47008e-07
4.90036e-08
5.44033e-08
7.69479e-08
4.30181e-08
1.98952e-07
5.65013e-06
4.97029e-05
4.02026e-05
7.65632e-06
4.15644e-07
6.51387e-08
6.12093e-08
8.41645e-08
6.00269e-08
1.88372e-07
5.00659e-06
4.38099e-05
3.5101e-05
7.73183e-06
5.03892e-07
8.22694e-08
7.11189e-08
8.56938e-08
6.37328e-08
1.80396e-07
4.4143e-06
3.92827e-05
3.07369e-05
7.97594e-06
6.13474e-07
9.91662e-08
7.87788e-08
8.90391e-08
7.46969e-08
1.73695e-07
3.89235e-06
3.51667e-05
2.6886e-05
8.284e-06
8.03131e-07
1.3153e-07
9.10857e-08
9.24868e-08
8.47658e-08
1.67124e-07
3.41445e-06
3.21552e-05
2.34408e-05
8.92342e-06
1.00052e-06
1.59421e-07
1.07462e-07
9.93972e-08
9.63716e-08
1.63326e-07
2.99535e-06
2.90505e-05
2.02447e-05
9.52737e-06
1.38492e-06
2.42566e-07
1.26337e-07
1.17266e-07
1.10425e-07
1.64438e-07
2.58602e-06
2.69428e-05
1.72764e-05
1.06328e-05
1.78666e-06
3.1681e-07
1.679e-07
1.38386e-07
1.33598e-07
1.67975e-07
2.23925e-06
2.43746e-05
1.44288e-05
1.187e-05
2.58813e-06
4.88921e-07
2.09865e-07
1.77977e-07
1.67304e-07
1.96818e-07
1.87586e-06
2.27007e-05
1.16859e-05
1.26313e-05
4.05236e-06
8.23886e-07
3.13812e-07
2.33254e-07
2.12131e-07
2.23159e-07
1.62168e-06
2.02361e-05
8.9914e-06
1.36677e-05
6.2912e-06
1.4098e-06
5.10479e-07
3.32566e-07
2.89751e-07
3.07414e-07
1.29477e-06
1.86844e-05
6.65657e-06
1.53241e-05
8.84393e-06
2.58462e-06
9.04445e-07
5.10677e-07
4.31508e-07
4.28978e-07
1.42305e-06
1.54906e-05
5.11236e-06
1.72967e-05
1.30027e-05
4.85794e-06
1.89697e-06
8.80996e-07
6.52788e-07
6.53534e-07
1.75568e-06
1.28355e-05
0.311997
0.709769
0.699305
0.698933
0.698885
0.698886
0.698933
0.699304
0.709858
0.312413
0.0637957
0.0523753
0.0361492
0.0356967
0.0356676
0.0356711
0.0357016
0.0361558
0.0523146
0.0642762
0.0177622
0.0075086
0.00315454
0.00307335
0.00307305
0.00307494
0.0030741
0.00315051
0.00747151
0.0179428
0.00632944
0.00184218
0.00052295
0.000503757
0.000506085
0.000507192
0.000506863
0.00053005
0.0018004
0.00642593
0.00274262
0.000702048
0.00014913
0.000142649
0.000144906
0.000145661
0.000145362
0.000158493
0.000702857
0.00278601
0.00138132
0.000335369
6.69535e-05
6.43718e-05
6.69128e-05
6.98821e-05
6.74208e-05
7.41338e-05
0.000297168
0.0014132
0.000794097
0.000200058
4.54366e-05
4.67144e-05
4.64372e-05
4.66967e-05
4.90144e-05
5.19327e-05
0.000193732
0.000800534
0.000489542
0.00013522
3.43176e-05
3.32313e-05
3.62059e-05
3.50121e-05
3.59891e-05
4.04549e-05
0.000138462
0.000496001
0.000330151
9.78548e-05
2.5087e-05
2.72799e-05
2.48175e-05
2.84967e-05
2.58362e-05
3.07725e-05
0.000100613
0.000333255
0.000234635
5.80046e-05
1.96507e-05
1.48945e-05
1.93896e-05
1.60571e-05
1.99817e-05
1.8043e-05
6.06284e-05
0.000237308
0.000174397
5.52997e-05
1.01555e-05