/*--------------------------------*- C++ -*----------------------------------*\
| =========                 |                                                 |
| \\      /  F ield         | OpenFOAM: The Open Source CFD Toolbox           |
|  \\    /   O peration     | Version:  4.1                                   |
|   \\  /    A nd           | Web:      www.OpenFOAM.org                      |
|    \\/     M anipulation  |                                                 |
\*---------------------------------------------------------------------------*/
FoamFile
{
    version     2.0;
    format      ascii;
    class       volScalarField;
    location    "100";
    object      k;
}
// * * * * * * * * * * * * * * * * * * * * * * * * * * * * * * * * * * * * * //

dimensions      [0 2 -2 0 0 0 0];

internalField   nonuniform List<scalar> 
12000
(
0.116569
0.113993
0.113691
0.113616
0.113598
0.113598
0.113616
0.113692
0.114021
0.116607
0.0404796
0.0398061
0.0394994
0.0393184
0.0392624
0.0392626
0.0393184
0.0394962
0.0398003
0.040467
0.016943
0.016967
0.0167993
0.0166521
0.0165972
0.0165975
0.0166529
0.0167991
0.0169682
0.0169466
0.00839947
0.00857619
0.00849857
0.00840109
0.00835954
0.00835988
0.0084022
0.00849963
0.00858009
0.00840625
0.00477541
0.0049536
0.00491379
0.0048511
0.00482021
0.00482054
0.00485205
0.00491461
0.00495839
0.00478623
0.00301514
0.00315922
0.00314319
0.00310251
0.00307977
0.00307994
0.00310294
0.00314262
0.00316272
0.00302668
0.00206239
0.00217234
0.00217203
0.00214496
0.002128
0.00212836
0.00214602
0.00217319
0.00217717
0.00207379
0.00150008
0.00158058
0.0015937
0.00157603
0.0015619
0.00156214
0.00157635
0.00159364
0.00158288
0.00151014
0.00114361
0.00120603
0.00122441
0.0012116
0.00120141
0.00120185
0.00121359
0.00122498
0.00120873
0.00115291
0.000905109
0.000956121
0.000975633
0.000966869
0.000955842
0.000956142
0.000967621
0.000978166
0.00095897
0.00091426
0.000737812
0.000781041
0.000795603
0.000792833
0.000784969
0.000785242
0.000793891
0.000802649
0.000784764
0.000747461
0.000616011
0.000655614
0.000671623
0.000667595
0.000662957
0.000663398
0.00066972
0.000677227
0.000659344
0.000626514
0.000524424
0.000562104
0.000578994
0.000574879
0.000571022
0.000571338
0.000577125
0.000583312
0.000566018
0.000536196
0.000453627
0.000489943
0.000506247
0.000502858
0.000499827
0.000500474
0.000505237
0.000510678
0.000494383
0.000467039
0.000397517
0.000432803
0.000448567
0.000445836
0.000443241
0.000444069
0.000448487
0.000453252
0.000438612
0.000413035
0.000351996
0.000386476
0.000401698
0.000399781
0.00039783
0.000398964
0.000402805
0.00040718
0.000393907
0.000370051
0.000314244
0.000348213
0.000363357
0.000362003
0.000360556
0.000361824
0.000365508
0.000369864
0.000357711
0.000335447
0.000282254
0.000316124
0.000331179
0.000330654
0.000329841
0.000331442
0.000334857
0.000339138
0.000327805
0.000307125
0.000254501
0.000288591
0.000304066
0.000304214
0.000303909
0.000305622
0.000309159
0.000313814
0.000303324
0.000284039
0.000229772
0.000264569
0.000280747
0.000281744
0.000282162
0.000284308
0.000287701
0.000292393
0.00028273
0.000264791
0.000207065
0.000243067
0.000260256
0.000262266
0.000263103
0.000265438
0.000269279
0.000274603
0.000266159
0.000249333
0.00018537
0.000223093
0.000241917
0.000245273
0.000246999
0.000250075
0.000253818
0.000259248
0.000252003
0.000236283
0.000163758
0.000203631
0.000225182
0.000229996
0.0002321
0.000235564
0.000240282
0.000246739
0.000241219
0.000226509
0.000140924
0.000183663
0.000208954
0.000216219
0.000219741
0.000224111
0.000228804
0.000235631
0.000231691
0.000218294
0.000115507
0.000161349
0.000192551
0.000202761
0.000206982
0.000212079
0.000218511
0.000227076
0.000225338
0.000213384
8.4099e-05
0.000135592
0.000174241
0.000189717
0.000196768
0.000202897
0.000209105
0.000218916
0.000219177
0.000209701
4.64217e-05
0.000102643
0.000152283
0.000173689
0.00018333
0.000191615
0.000200644
0.000213142
0.00021624
0.000209331
3.08952e-05
6.77995e-05
0.000121939
0.000155061
0.000171875
0.000181807
0.000190286
0.000205947
0.000213423
0.000211996
4.13085e-05
5.87765e-05
8.06087e-05
0.000112571
0.000146754
0.000167855
0.000181395
0.0001988
0.000213642
0.000213803
6.62463e-05
8.51081e-05
8.97395e-05
9.06348e-05
0.000105021
0.000127667
0.000156522
0.000186114
0.000208661
0.000223981
0.113993
0.0222975
0.0199976
0.0199845
0.0199856
0.0199856
0.0199845
0.0199975
0.0222909
0.113979
0.0398045
0.00238924
0.0016341
0.00161933
0.00161814
0.00161779
0.001619
0.00163244
0.00238853
0.0396753
0.0169648
0.00152007
0.000903658
0.000884025
0.000884011
0.000883062
0.000884504
0.000906264
0.00151682
0.0168872
0.00857363
0.00128644
0.000801256
0.000778451
0.000779759
0.000778843
0.000775928
0.000795176
0.00129271
0.0085178
0.00495097
0.00119376
0.000586415
0.000573278
0.000567009
0.000564926
0.00057123
0.000584015
0.00119249
0.00492515
0.00315662
0.000947138
0.000425637
0.000389735
0.000405585
0.000404313
0.000384227
0.000414071
0.000959897
0.00315251
0.00216951
0.000703898
0.000252029
0.000263785
0.000239647
0.000239206
0.000267226
0.00026754
0.000699627
0.00217956
0.00157769
0.00054463
0.000227872
0.000177857
0.0002093
0.000208433
0.000164155
0.000177493
0.00052649
0.00159057
0.00120293
0.000441221
0.000195803
0.000118103
0.000180131
0.000179949
0.000146572
0.000168516
0.000428471
0.00121678
0.000952789
0.000379334
0.000157192
0.000129768
0.000144855
0.0001465
0.000139669
0.000134752
0.000310908
0.000966395
0.000777496
0.000292638
0.000118089
0.000101976
0.000113152
0.000111183
0.000109261
9.59922e-05
0.000256331
0.00079082
0.000651637
0.000245122
8.10336e-05
7.07911e-05
8.62481e-05
9.10273e-05
8.34477e-05
6.64304e-05
0.000230843
0.000664043
0.000557622
0.000224878
7.61839e-05
6.25636e-05
6.67993e-05
7.6718e-05
7.11673e-05
6.55271e-05
0.00021481
0.000569701
0.0004849
0.00020947
6.97262e-05
5.93897e-05
5.55505e-05
6.50572e-05
6.18538e-05
6.22217e-05
0.000202565
0.000497747
0.000427127
0.000197783
6.4349e-05
5.68325e-05
4.76625e-05
5.87817e-05
6.11449e-05
5.66973e-05
0.000194278
0.000441829
0.000380059
0.000185977
5.56369e-05
5.27999e-05
4.69632e-05
5.42631e-05
5.9527e-05
5.59666e-05
0.000180796
0.000397479
0.000340951
0.000177502
5.26301e-05
5.07822e-05
4.47998e-05
5.1986e-05
5.76796e-05
5.55897e-05
0.000167014
0.000361107
0.000307892
0.000169274
5.37975e-05
5.02699e-05
4.44696e-05
4.84709e-05
5.63949e-05
5.54683e-05
0.00015369
0.000331467
0.000279318
0.000162757
5.53883e-05
5.02454e-05
4.42105e-05
4.58989e-05
5.38346e-05
5.56095e-05
0.000140849
0.000306081
0.000254162
0.000159804
5.77265e-05
5.04057e-05
4.41077e-05
4.53255e-05
5.23943e-05
5.55751e-05
0.000129857
0.000285312
0.000231642
0.000161855
6.09102e-05
5.07281e-05
4.40013e-05
4.49153e-05
5.24972e-05
5.49014e-05
0.000120191
0.000266825
0.000210737
0.000162504
6.50445e-05
5.14282e-05
4.4668e-05
4.47557e-05
5.18145e-05
5.4947e-05
0.00011185
0.000252093
0.000190891
0.000165425
7.31974e-05
5.29373e-05
4.58056e-05
4.46707e-05
5.17657e-05
5.54194e-05
0.000105171
0.000238226
0.000171092
0.000166745
8.17322e-05
5.60861e-05
4.90792e-05
4.51735e-05
5.2137e-05
5.61911e-05
9.87679e-05
0.00022779
0.000150544
0.000169498
9.19269e-05
5.99515e-05
5.19966e-05
4.79038e-05
5.32901e-05
5.77123e-05
9.43671e-05
0.000216761
0.000128018
0.00017508
0.000112432
6.87191e-05
5.82972e-05
5.17389e-05
5.54812e-05
5.9889e-05
8.93015e-05
0.00020917
0.000102667
0.000185007
0.000130223
7.92865e-05
6.46468e-05
5.86709e-05
6.08413e-05
6.39871e-05
8.83885e-05
0.000198705
7.48184e-05
0.000200328
0.00016169
9.93588e-05
7.78077e-05
6.64243e-05
6.70914e-05
7.08473e-05
8.70826e-05
0.000193648
5.91978e-05
0.000226724
0.000203218
0.000129178
9.52928e-05
8.23903e-05
8.11464e-05
8.32246e-05
0.000108102
0.000179336
6.1478e-05
0.000253521
0.000259481
0.00019782
0.000127818
0.000100411
9.75559e-05
0.000100665
0.000139505
0.000192337
0.11369
0.0199981
0.0177722
0.0177639
0.0177636
0.0177637
0.017764
0.0177722
0.0199924
0.11364
0.0394979
0.00163453
0.000806179
0.000804176
0.00079614
0.000803779
0.000802638
0.000806246
0.00163331
0.0393412
0.0167971
0.000906454
6.82872e-05
4.95267e-05
4.6358e-05
4.8813e-05
5.01249e-05
6.91564e-05
0.000898897
0.0167103
0.00849571
0.000798372
2.1016e-06
1.13105e-06
5.53389e-07
1.08646e-06
1.21062e-06
2.15523e-06
0.000793793
0.00844288
0.00491106
0.000598086
8.66337e-07
1.23439e-06
6.35052e-07
1.41313e-06
1.3287e-06
7.24939e-07
0.000592859
0.00489425
0.00314065
0.000414986
1.20135e-06
1.92655e-06
1.44596e-06
2.4601e-06
2.81358e-06
1.34503e-06
0.000405732
0.00314334
0.00216791
0.000266509
2.00361e-06
3.15541e-06
2.724e-06
2.67028e-06
2.64857e-06
1.72041e-06
0.000276368
0.00218037
0.00159137
0.00023068
3.08886e-06
2.18315e-06
2.56138e-06
1.79429e-06
2.33854e-06
3.07129e-06
0.000179725
0.00160396
0.00122085
0.000197093
1.79796e-06
2.67729e-06
2.83829e-06
3.30166e-06
2.3912e-06
2.61304e-06
0.000131698
0.00123348
0.000973164
0.000154916
2.61663e-06
1.9883e-06
2.20214e-06
2.48151e-06
1.85734e-06
2.59352e-06
9.94158e-05
0.000983826
0.000794855
0.000111385
2.56941e-06
1.93391e-06
1.71431e-06
1.98836e-06
1.74503e-06
1.9514e-06
8.35116e-05
0.000807547
0.000669186
8.66724e-05
1.86491e-06
1.10198e-06
1.08222e-06
7.23345e-07
1.31369e-06
1.36141e-06
6.28047e-05
0.000678783
0.000575027
8.69046e-05
1.54884e-06
8.21866e-07
7.34048e-07
4.97854e-07
7.34598e-07
1.06343e-06
6.25451e-05
0.000583438
0.000501511
8.43912e-05
1.50591e-06
7.5025e-07
5.61877e-07
4.0987e-07
6.18778e-07
9.74315e-07
6.11786e-05
0.000509942
0.000443041
8.08038e-05
1.8299e-06
8.20935e-07
4.81235e-07
3.81908e-07
6.38258e-07
1.08527e-06
5.94935e-05
0.000452028
0.000395344
7.77963e-05
2.27652e-06
8.77679e-07
5.1819e-07
3.91779e-07
7.0876e-07
1.20029e-06
5.58218e-05
0.000405933
0.000355824
7.79946e-05
3.07547e-06
1.04557e-06
5.81797e-07
4.41833e-07
8.51339e-07
1.30689e-06
5.40907e-05
0.000367788
0.000322413
7.97957e-05
3.70609e-06
1.14711e-06
6.99407e-07
4.68686e-07
9.95773e-07
1.39832e-06
5.27684e-05
0.000337206
0.000293674
8.303e-05
4.9959e-06
1.46523e-06
8.28822e-07
5.40273e-07
1.15704e-06
1.51151e-06
5.0232e-05
0.000310412
0.000268384
8.66401e-05
6.08072e-06
1.53579e-06
9.47441e-07
6.41795e-07
1.29656e-06
1.58429e-06
4.74925e-05
0.00028913
0.000245767
9.20809e-05
8.1987e-06
1.82008e-06
1.10912e-06
7.2939e-07
1.4703e-06
1.73064e-06
4.44905e-05
0.000268908
0.000224923
9.65186e-05
1.05092e-05
2.09735e-06
1.25802e-06
8.93205e-07
1.6677e-06
1.84305e-06
4.17296e-05
0.000253779
0.000205354
0.000104292
1.3553e-05
2.71066e-06
1.63298e-06
1.03903e-06
1.86707e-06
2.06878e-06
3.79671e-05
0.000237333
0.000186297
0.000111094
1.83832e-05
3.70587e-06
2.00817e-06
1.3457e-06
2.11258e-06
2.23525e-06
3.49591e-05
0.000226314
0.000167553
0.000124687
2.38852e-05
5.35321e-06
2.86044e-06
1.67146e-06
2.42355e-06
2.63363e-06
3.08252e-05
0.000211727
0.000148563
0.000135236
3.61224e-05
7.81276e-06
3.79226e-06
2.40897e-06
2.78083e-06
2.95831e-06
2.71292e-05
0.00020252
0.000129067
0.000144338
5.53424e-05
1.30674e-05
5.55167e-06
3.22721e-06
3.48777e-06
3.70514e-06
2.34317e-05
0.000187903
0.000108413
0.000156775
8.08598e-05
2.10078e-05
8.50934e-06
5.16583e-06
4.48252e-06
4.48776e-06
2.04928e-05
0.000177629
8.85094e-05
0.000173186
0.000112004
3.61678e-05
1.36358e-05
7.74224e-06
6.64321e-06
6.50264e-06
1.85044e-05
0.000156452
7.37536e-05
0.000194224
0.000154747
6.58263e-05
2.50213e-05
1.26505e-05
9.48216e-06
8.75577e-06
2.13926e-05
0.000140472
0.113616
0.0199851
0.0177639
0.0177556
0.0177553
0.0177553
0.0177556
0.0177639
0.0199793
0.113563
0.0393169
0.00161991
0.000803115
0.000795176
0.000785594
0.000793063
0.000794756
0.000800138
0.00161912
0.0391607
0.0166498
0.000885819
4.99385e-05
4.65407e-05
4.99169e-05
4.48531e-05
4.53064e-05
4.88621e-05
0.000878966
0.0165661
0.00839839
0.000780709
1.21468e-06
6.08552e-07
1.94623e-07
6.09137e-07
5.99302e-07
5.74623e-07
0.00077832
0.0083505
0.00484801
0.000574461
1.36075e-06
1.1862e-09
6.1939e-11
3.9881e-09
4.92748e-09
2.65163e-07
0.000567734
0.00483506
0.00309964
0.000394871
2.57787e-06
3.62666e-09
3.50037e-11
2.89371e-09
6.1424e-10
3.29235e-07
0.000403566
0.00310502
0.00214103
0.000256447
2.31036e-06
2.02555e-08
8.28457e-10
7.27437e-09
5.5252e-10
1.62798e-07
0.000237218
0.00215438
0.00157262
0.000207357
3.25302e-06
1.60564e-08
7.50565e-10
3.27424e-09
1.83812e-09
1.72399e-07
0.00021194
0.00158495
0.00120877
0.000174223
2.72899e-06
1.8104e-08
1.26684e-09
1.5072e-09
2.36432e-09
1.56285e-07
0.000180503
0.00122029
0.00096235
0.000138692
3.31007e-06
1.47422e-08
2.85175e-09
1.31154e-09
1.58157e-09
1.82679e-07
0.000141919
0.000974076
0.000788567
0.000103942
2.56751e-06
1.02015e-08
2.162e-09
4.84851e-10
9.48025e-10
6.24785e-08
0.000106856
0.000798825
0.000663608
7.81742e-05
1.603e-06
3.43166e-09
2.05718e-09
2.74222e-11
7.68857e-10
4.63314e-08
8.16852e-05
0.000674768
0.000569868
7.8871e-05
1.29595e-06
2.77876e-09
8.45267e-10
2.28567e-11
3.54569e-10
4.02383e-08
6.56079e-05
0.000582222
0.000496702
7.25879e-05
1.13618e-06
3.84619e-09
7.44141e-10
6.38199e-11
3.33833e-10
3.92056e-08
5.76336e-05
0.000510586
0.000438411
6.75269e-05
1.27787e-06
8.40915e-09
1.03859e-09
2.57267e-10
8.72806e-10
3.58564e-08
4.98052e-05
0.000453409
0.000391097
6.57358e-05
1.59185e-06
1.78492e-08
1.62544e-09
4.36375e-10
1.24631e-09
8.57611e-08
4.76228e-05
0.000407787
0.000351923
6.66692e-05
2.00529e-06
3.59128e-08
2.59062e-09
1.22398e-09
3.29597e-09
1.0714e-07
4.58539e-05
0.000369663
0.000318806
6.76015e-05
2.7479e-06
6.2921e-08
3.37855e-09
1.32727e-09
8.83539e-10
1.30952e-07
4.40803e-05
0.000339164
0.000290344
7.12059e-05
3.4952e-06
1.04761e-07
7.65862e-09
1.71724e-09
1.82832e-09
1.63033e-07
4.23652e-05
0.000312078
0.000265265
7.3878e-05
4.65992e-06
1.74373e-07
8.52822e-09
1.75015e-09
3.70636e-09
1.83133e-07
4.03713e-05
0.000290977
0.000242842
8.11429e-05
6.05482e-06
2.89935e-07
2.3099e-08
4.32529e-09
3.77013e-09
2.37191e-07
3.90143e-05
0.000270424
0.000222211
8.60859e-05
8.42364e-06
4.84726e-07
3.0356e-08
4.78695e-09
1.20115e-08
2.20482e-07
3.72202e-05
0.000255602
0.000202963
9.6335e-05
1.09135e-05
7.74843e-07
8.26204e-08
1.41981e-08
1.31363e-08
2.67551e-07
3.40218e-05
0.000238745
0.000184375
0.000103546
1.56013e-05
1.38948e-06
1.14611e-07
1.73323e-08
2.154e-08
2.60229e-07
3.16634e-05
0.000228032
0.000166246
0.000118016
2.03004e-05
2.26278e-06
2.85997e-07
4.76593e-08
2.6744e-08
2.51477e-07
2.77322e-05
0.000212913
0.000148208
0.000129228
2.99029e-05
3.9914e-06
4.70557e-07
7.3254e-08
5.2333e-08
2.49774e-07
2.49079e-05
0.000204299
0.000129932
0.000136825
4.81201e-05
7.09438e-06
1.1384e-06
2.37136e-07
6.90733e-08
2.44396e-07
2.01412e-05
0.000188602
0.000111207
0.00014551
6.84512e-05
1.4216e-05
2.24728e-06
4.0393e-07
1.69695e-07
2.32177e-07
1.70498e-05
0.000178219
9.224e-05
0.000156265
9.21935e-05
2.2641e-05
4.81335e-06
1.18685e-06
2.46483e-07
3.20732e-07
1.18864e-05
0.000155131
7.36746e-05
0.000168432
0.000120707
4.08275e-05
1.01443e-05
2.5562e-06
8.00685e-07
3.77402e-07
1.04591e-05
0.000138158
0.113598
0.0199862
0.0177636
0.0177553
0.017755
0.017755
0.0177553
0.0177636
0.0199804
0.113545
0.0392608
0.00161846
0.00080169
0.00078516
0.000783469
0.000783508
0.000793671
0.000798551
0.0016176
0.039105
0.0165948
0.000885593
5.01918e-05
4.90408e-05
5.07711e-05
4.99747e-05
4.58071e-05
4.80941e-05
0.000879551
0.016512
0.00835635
0.000779315
1.14698e-06
2.42883e-07
3.68007e-07
2.08612e-07
5.35447e-07
6.20517e-07
0.000774224
0.00830977
0.00481704
0.000573976
1.20677e-06
1.36282e-10
2.28945e-10
9.72949e-11
6.58557e-09
3.04646e-07
0.000573711
0.00480515
0.00307626
0.000393716
2.19856e-06
4.92964e-11
2.66237e-14
4.20581e-15
1.20416e-10
3.31679e-07
0.00038811
0.00308223
0.00212326
0.000256384
3.78831e-06
5.95034e-09
1.65637e-14
2.35057e-13
4.91049e-12
2.15793e-07
0.000263019
0.00213627
0.00155851
0.000204167
3.28608e-06
8.29489e-09
1.04375e-12
2.00802e-13
1.0823e-11
1.17462e-07
0.000171493
0.00157146
0.00119779
0.000171212
3.10517e-06
6.1547e-09
1.69189e-12
7.40067e-14
2.12835e-12
7.98319e-08
0.000121776
0.00120983
0.00095293
0.000136919
2.98593e-06
1.39482e-09
9.62169e-13
1.8243e-13
9.66148e-12
1.2292e-07
0.000105903
0.000965516
0.000781184
0.000102016
2.26891e-06
3.45864e-10
8.64234e-14
7.36127e-14
1.37713e-11
1.13757e-07
8.20446e-05
0.000795467
0.000657815
8.12094e-05
1.24146e-06
2.69097e-10
3.91934e-14
1.44638e-15
4.02299e-13
2.25459e-08
6.83254e-05
0.000668758
0.00056474
6.44035e-05
1.00612e-06
1.28813e-09
5.262e-13
1e-15
2.41067e-12
2.59889e-08
6.04604e-05
0.000576865
0.000492495
6.44247e-05
9.14588e-07
5.46969e-09
2.31579e-11
1.09999e-14
2.28905e-12
3.52333e-08
4.99339e-05
0.000505935
0.000434777
6.23638e-05
1.05131e-06
6.81827e-09
2.64261e-11
8.88621e-14
4.82653e-12
3.84501e-08
4.30045e-05
0.000449069
0.000388026
6.12712e-05
1.46386e-06
1.9479e-08
1.66348e-10
4.81572e-13
4.18894e-11
8.32308e-08
3.96168e-05
0.000403802
0.00034938
6.4676e-05
1.83685e-06
3.10891e-08
5.21132e-10
5.15731e-12
4.76151e-11
8.6739e-08
3.75945e-05
0.00036586
0.000316687
6.52056e-05
2.51206e-06
6.31492e-08
6.47717e-10
1.58034e-11
7.34208e-11
8.86962e-08
3.66164e-05
0.000335449
0.000288598
6.8152e-05
3.08444e-06
8.50306e-08
2.82313e-09
4.23512e-12
4.13173e-11
1.17134e-07
3.46544e-05
0.000308441
0.000263823
6.92266e-05
4.14824e-06
1.48936e-07
4.27367e-09
2.73783e-10
1.77223e-10
1.32507e-07
3.41675e-05
0.000287408
0.000241617
7.44347e-05
5.19991e-06
2.28197e-07
1.22926e-08
1.58009e-09
2.87945e-10
1.81464e-07
3.27779e-05
0.000266913
0.00022118
7.86861e-05
7.29625e-06
4.0547e-07
1.84455e-08
1.46207e-09
3.60835e-10
1.8084e-07
3.15561e-05
0.000252173
0.000202059
8.90988e-05
9.53747e-06
6.55641e-07
5.53195e-08
1.11063e-09
5.57509e-10
1.85366e-07
3.03528e-05
0.000235595
0.00018357
9.66599e-05
1.3881e-05
1.15766e-06
7.8054e-08
1.04741e-08
1.10233e-09
2.07796e-07
2.91057e-05
0.000225228
0.000165499
0.000112288
1.86861e-05
2.0061e-06
2.34756e-07
1.31919e-08
2.45401e-09
2.21184e-07
2.66898e-05
0.000210454
0.000147412
0.000124832
2.74887e-05
3.65805e-06
3.66337e-07
6.01835e-08
5.07016e-09
2.05307e-07
2.43043e-05
0.00020222
0.000129082
0.00013478
4.63721e-05
6.4736e-06
9.96265e-07
9.20561e-08
1.72303e-08
1.76909e-07
1.97236e-05
0.000186538
0.000109826
0.000142982
6.60411e-05
1.35819e-05
1.97895e-06
3.71345e-07
4.95959e-08
1.31845e-07
1.66382e-05
0.000176952
9.03373e-05
0.00015651
9.15092e-05
2.2063e-05
4.61399e-06
7.41271e-07
1.06682e-07
1.29268e-07
1.16052e-05
0.00015348
6.98979e-05
0.000166536
0.000120249
4.03363e-05
9.61957e-06
2.39356e-06
5.66012e-07
3.00139e-07
1.01024e-05
0.000135134
0.113597
0.0199862
0.0177636
0.0177553
0.017755
0.017755
0.0177553
0.0177636
0.0199804
0.113545
0.0392608
0.00161865
0.000797857
0.000794696
0.000789788
0.000791563
0.000785223
0.000802005
0.00161732
0.0391052
0.0165947
0.000885461
4.68159e-05
4.56357e-05
4.42642e-05
4.58939e-05
4.86546e-05
4.85422e-05
0.000879805
0.0165124
0.00835654
0.000782067
7.133e-07
5.4131e-07
1.48433e-07
6.12739e-07
3.02147e-07
5.2449e-07
0.00077237
0.00831028
0.00481684
0.000566053
3.28335e-07
4.30306e-10
2.51547e-10
2.8713e-09
1.81967e-10
5.59717e-07
0.000573268
0.00480547
0.00307597
0.0004067
4.23209e-07
7.74882e-13
1.49967e-12
2.87292e-13
2.21019e-12
1.01903e-06
0.000385249
0.00308227
0.00212416
0.000241219
1.97719e-07
2.97009e-12
1.14717e-14
2.35917e-15
6.49556e-11
1.07837e-06
0.000265667
0.00213612
0.00155746
0.000211944
2.82639e-07
3.11683e-11
1e-15
3.44321e-15
7.00587e-11
7.90176e-07
0.000162486
0.00157126
0.00119702
0.000184215
7.1391e-07
8.92312e-11
1.00774e-15
3.40236e-11
2.2562e-10
9.0974e-07
0.000141683
0.00120962
0.000950393
0.000152104
3.54103e-07
4.77754e-11
2.18902e-14
2.96985e-12
1.094e-09
1.31733e-06
0.000131973
0.000966019
0.000779104
0.000116789
4.59887e-07
7.34654e-11
2.44751e-14
2.00915e-12
9.60887e-10
1.16756e-06
0.000100568
0.000792312
0.000656851
9.09611e-05
5.30111e-07
8.88481e-11
2.19278e-14
2.68581e-12
6.16424e-10
8.24893e-07
7.47445e-05
0.000668592
0.000564122
7.28111e-05
4.83044e-07
1.43649e-09
2.54666e-13
1.76723e-12
9.89714e-10
9.29584e-07
6.21565e-05
0.000576691
0.000491905
7.22438e-05
1.00878e-06
4.11638e-09
2.28499e-11
1.99292e-12
1.0464e-09
7.7348e-07
5.41234e-05
0.000505489
0.00043444
6.92571e-05
1.09668e-06
5.49288e-09
4.96004e-10
2.95491e-12
7.73281e-10
6.50329e-07
5.00499e-05
0.000448825
0.000387779
6.81834e-05
1.55341e-06
1.8533e-08
2.72508e-10
5.85978e-12
1.8876e-09
7.75937e-07
4.68029e-05
0.000403614
0.00034918
6.92767e-05
1.90545e-06
1.42474e-08
1.51962e-09
8.62226e-12
1.68874e-09
7.6802e-07
4.5646e-05
0.000365887
0.000316621
7.19622e-05
2.88808e-06
7.97855e-08
1.86087e-09
1.40628e-11
1.66465e-09
7.23021e-07
4.56101e-05
0.000335743
0.000288568
7.46859e-05
3.27987e-06
7.13451e-08
8.25631e-10
3.82269e-11
1.84645e-09
7.1012e-07
4.4552e-05
0.00030899
0.000263922
7.91342e-05
4.00855e-06
1.49913e-07
4.41959e-09
1.16518e-10
1.98953e-09
6.9269e-07
4.29195e-05
0.00028815
0.000241793
8.32542e-05
5.00549e-06
1.90837e-07
9.28879e-09
3.19422e-10
2.17237e-09
7.11711e-07
4.08262e-05
0.000267853
0.000221511
8.97854e-05
6.9729e-06
3.26143e-07
1.56172e-08
4.16553e-10
2.46685e-09
6.84276e-07
3.82173e-05
0.000253174
0.00020249
9.60791e-05
9.46321e-06
5.51314e-07
3.01555e-08
2.36885e-09
2.48613e-09
6.27825e-07
3.49198e-05
0.000236532
0.000184019
0.000101809
1.37103e-05
9.70352e-07
4.37919e-08
8.37793e-09
3.17901e-09
5.72233e-07
3.18254e-05
0.000225885
0.000165902
0.000114473
1.87022e-05
1.90694e-06
1.88707e-07
1.95834e-08
4.15024e-09
4.88349e-07
2.80304e-05
0.000210984
0.000147772
0.000125661
2.76599e-05
3.40199e-06
3.0783e-07
2.2811e-08
7.51904e-09
3.98469e-07
2.47068e-05
0.000202399
0.000129416
0.000135066
4.68445e-05
6.66944e-06
9.28903e-07
1.43897e-07
9.71806e-09
2.93534e-07
2.03884e-05
0.000187051
0.000110243
0.000143486
6.71534e-05
1.3856e-05
1.9428e-06
2.58854e-07
1.56292e-08
2.19924e-07
1.65821e-05
0.00017645
9.08341e-05
0.000157051
9.25917e-05
2.28579e-05
4.61219e-06
9.60384e-07
2.26225e-07
2.17295e-07
1.20818e-05
0.000153994
7.06681e-05
0.000168033
0.000123025
4.16501e-05
1.01262e-05
2.36328e-06
5.49302e-07
2.48492e-07
9.89711e-06
0.000134874
0.113616
0.0199851
0.0177639
0.0177557
0.0177553
0.0177554
0.0177557
0.0177639
0.0199793
0.113563
0.0393165
0.00161972
0.000802099
0.000789756
0.00078525
0.000789133
0.000787531
0.000803575
0.00161854
0.039161
0.0166498
0.000885272
4.80738e-05
4.87071e-05
4.84288e-05
4.72557e-05
4.31994e-05
4.96025e-05
0.000880213
0.0165676
0.00839873
0.000782279
6.72697e-07
7.91008e-07
2.50901e-07
1.72472e-07
2.89621e-07
4.3161e-07
0.00077206
0.00835247
0.00484769
0.000563871
3.1386e-07
2.16643e-09
1.77952e-10
3.03068e-10
2.22275e-10
4.28361e-07
0.000572266
0.00483656
0.00309888
0.00040615
4.75365e-07
9.13327e-12
1.56446e-13
3.27906e-12
9.93385e-12
9.12215e-07
0.000386108
0.00310529
0.00214162
0.000240931
2.92515e-07
1.05281e-10
1.02083e-12
1.12043e-10
4.21352e-11
1.00402e-06
0.000257152
0.00215411
0.00157125
0.000213365
2.58004e-07
7.92719e-11
2.82604e-11
1.4101e-10
1.74773e-10
8.58621e-07
0.000170804
0.00158358
0.00120772
0.00018584
5.03768e-07
2.71467e-10
2.87787e-11
1.79608e-10
5.84112e-10
1.54447e-06
0.000157271
0.0012202
0.000959356
0.000154668
1.52624e-06
3.03636e-10
2.23898e-11
4.35748e-09
1.59709e-09
2.04172e-06
0.000141699
0.000973815
0.000786341
0.000120403
6.47726e-07
1.02253e-10
2.90239e-11
3.33667e-09
4.2519e-10
2.08295e-06
0.000116921
0.000798363
0.00066259
8.50738e-05
5.39304e-07
1.4481e-10
5.88351e-12
3.28888e-09
4.13277e-10
1.47305e-06
8.52042e-05
0.00067318
0.000569332
8.47128e-05
8.17698e-07
7.9428e-10
7.07706e-12
2.26157e-09
6.88522e-10
9.74629e-07
6.51373e-05
0.000581385
0.000496131
7.70096e-05
1.31627e-06
3.15472e-09
3.44947e-11
1.93068e-09
7.27093e-10
8.81172e-07
5.21741e-05
0.000510368
0.000438016
7.322e-05
1.5399e-06
1.04355e-08
1.34425e-10
1.68481e-09
5.36633e-10
7.3654e-07
4.32245e-05
0.000453348
0.000390742
7.36924e-05
1.89086e-06
9.53927e-09
1.90582e-10
1.06367e-09
1.8412e-09
7.15236e-07
4.14829e-05
0.000407891
0.000351654
7.61186e-05
3.07691e-06
6.29958e-08
1.32492e-09
3.06285e-09
1.13758e-09
6.1888e-07
3.8172e-05
0.000369783
0.00031865
7.94256e-05
3.19996e-06
8.81458e-08
1.01839e-09
3.05756e-09
2.20251e-09
5.67522e-07
3.5431e-05
0.000339133
0.000290303
8.33956e-05
3.96374e-06
9.40881e-08
5.85961e-09
4.186e-09
3.71593e-09
5.7505e-07
3.43987e-05
0.000311979
0.000265331
8.77733e-05
5.0665e-06
2.29454e-07
1.0429e-08
5.45722e-09
4.48883e-09
5.57212e-07
3.18506e-05
0.000290598
0.000243024
9.35883e-05
6.61115e-06
2.79008e-07
1.89533e-08
5.97925e-09
4.42751e-09
5.77133e-07
3.09073e-05
0.00027
0.000222568
9.94026e-05
9.19939e-06
4.70864e-07
3.43383e-08
9.08613e-09
6.45008e-09
5.40287e-07
3.12157e-05
0.000254815
0.000203446
0.000105974
1.20967e-05
7.58207e-07
4.03899e-08
1.56676e-08
1.01417e-08
5.4886e-07
3.02008e-05
0.000238201
0.000184944
0.000112039
1.66091e-05
1.37746e-06
1.45859e-07
2.11379e-08
1.44291e-08
5.08116e-07
2.81596e-05
0.000227056
0.00016675
0.000121994
2.17378e-05
2.42377e-06
1.99015e-07
5.01217e-08
2.65251e-08
4.52131e-07
2.51397e-05
0.000212034
0.000148667
0.000131201
3.10282e-05
4.07411e-06
5.62126e-07
7.65189e-08
3.45955e-08
3.84344e-07
2.14992e-05
0.000202699
0.000130374
0.000137954
4.95524e-05
7.53585e-06
9.43614e-07
2.10382e-07
8.38925e-08
3.24484e-07
1.63195e-05
0.000186569
0.000111749
0.000147021
7.06284e-05
1.49348e-05
2.54227e-06
4.03746e-07
1.20785e-07
3.07036e-07
1.38243e-05
0.000175382
9.2947e-05
0.000157784
9.47876e-05
2.414e-05
4.9375e-06
1.14942e-06
3.56624e-07
3.53194e-07
1.01786e-05
0.000153259
7.47813e-05
0.000171291
0.000125003
4.38083e-05
1.13943e-05
2.75478e-06
8.03498e-07
4.74932e-07
1.04704e-05
0.000136706
0.113691
0.0199981
0.0177722
0.0177639
0.0177636
0.0177637
0.017764
0.0177722
0.0199924
0.11364
0.0394942
0.00163301
0.000806411
0.00080102
0.000798454
0.000801994
0.000799814
0.000804599
0.00163173
0.0393391
0.016796
0.000908649
7.01774e-05
4.88167e-05
4.8207e-05
4.90077e-05
5.08071e-05
6.0891e-05
0.000902122
0.0167123
0.00849558
0.000793004
2.1968e-06
7.04703e-07
5.99056e-07
4.69678e-07
7.73538e-07
2.03234e-06
0.000790821
0.00844787
0.00491025
0.000594587
7.35491e-07
3.03203e-07
3.13588e-07
6.66445e-07
2.2351e-07
1.0101e-06
0.000585659
0.0048982
0.0031389
0.00041125
1.1824e-06
3.162e-07
3.36422e-07
1.3382e-06
2.79777e-07
1.65146e-06
0.000407032
0.0031448
0.00216643
0.000266984
2.01954e-06
2.43372e-07
2.38322e-07
1.82317e-06
1.78091e-07
2.48587e-06
0.000264361
0.00218079
0.00159043
0.000214766
2.06873e-06
1.86044e-07
1.69628e-07
1.54298e-06
1.17344e-07
3.31832e-06
0.000181706
0.00160161
0.00122009
0.000181726
2.32874e-06
1.737e-07
1.49052e-07
1.05739e-06
9.72524e-08
3.10406e-06
0.000160214
0.00123129
0.000972082
0.000145039
2.28822e-06
2.73644e-07
1.45209e-07
2.46632e-06
1.42974e-07
3.39863e-06
0.000140881
0.000980322
0.000795908
0.000103255
2.81312e-06
7.01554e-08
1.6021e-07
1.67262e-06
1.56877e-07
3.25184e-06
0.000112689
0.000802862
0.000669939
7.20193e-05
2.2977e-06
6.18143e-08
5.74281e-08
1.15746e-06
7.57959e-08
2.20199e-06
7.87101e-05
0.000677603
0.000575282
7.2686e-05
1.91087e-06
9.1628e-08
5.54495e-08
7.09521e-07
9.04273e-08
2.41981e-06
7.61512e-05
0.000583286
0.000501316
6.6176e-05
1.75841e-06
1.76941e-07
9.75653e-08
7.42563e-07
2.27472e-07
2.31249e-06
6.6025e-05
0.00051025
0.000442601
6.37883e-05
2.25444e-06
2.36897e-07
2.14315e-07
6.18117e-07
2.50182e-07
2.26142e-06
6.35892e-05
0.000452417
0.000394831
6.43062e-05
2.37964e-06
2.3984e-07
2.36453e-07
5.31818e-07
2.35165e-07
2.28333e-06
5.95152e-05
0.000406438
0.000355295
6.61938e-05
2.89242e-06
5.35822e-07
3.23051e-07
7.34033e-07
3.52897e-07
2.23291e-06
5.49065e-05
0.000368303
0.000321823
6.79756e-05
3.29016e-06
6.12257e-07
4.07065e-07
7.71977e-07
2.97513e-07
2.23388e-06
5.05728e-05
0.000337472
0.000293033
7.28211e-05
4.02476e-06
5.81995e-07
5.10242e-07
8.61277e-07
6.8829e-07
2.22935e-06
4.68109e-05
0.000310409
0.000267699
7.62062e-05
5.02993e-06
1.11097e-06
6.57046e-07
9.41977e-07
7.73805e-07
2.2207e-06
4.31775e-05
0.000288729
0.000245019
8.32184e-05
6.99141e-06
1.04395e-06
8.05156e-07
9.3009e-07
7.50872e-07
2.16973e-06
4.02239e-05
0.00026826
0.000224086
8.83719e-05
9.37291e-06
1.4221e-06
1.00834e-06
1.09017e-06
8.33819e-07
2.2058e-06
3.71748e-05
0.000252671
0.000204486
9.86872e-05
1.26735e-05
1.71044e-06
1.20522e-06
1.25381e-06
9.82554e-07
2.17213e-06
3.44051e-05
0.000236209
0.000185388
0.000107042
1.7897e-05
2.55912e-06
1.48242e-06
1.55926e-06
1.20628e-06
2.18141e-06
3.11262e-05
0.000224574
0.000166721
0.000123555
2.4231e-05
4.19357e-06
2.00176e-06
1.90457e-06
1.65985e-06
2.34584e-06
2.80217e-05
0.000210003
0.000147794
0.000135243
3.72987e-05
6.93969e-06
3.01879e-06
2.70529e-06
2.1115e-06
2.65447e-06
2.47077e-05
0.000200543
0.000128345
0.000145447
5.80755e-05
1.25243e-05
4.56796e-06
3.58732e-06
3.16936e-06
3.45525e-06
2.1233e-05
0.000184932
0.00010773
0.00015875
8.46043e-05
2.18158e-05
8.09157e-06
5.35875e-06
4.24684e-06
4.50657e-06
1.88962e-05
0.000175647
8.8072e-05
0.000175767
0.000115662
3.73466e-05
1.3503e-05
7.92292e-06
6.41063e-06
6.36145e-06
1.80328e-05
0.000153962
7.38765e-05
0.000196479
0.000157589
6.76776e-05
2.69448e-05
1.3267e-05
9.33178e-06
9.08131e-06
1.9913e-05
0.000139857
0.114021
0.0222919
0.0199929
0.0199799
0.0199809
0.0199809
0.0199798
0.0199929
0.0222865
0.113971
0.0397983
0.0023914
0.00163384
0.00161939
0.00161822
0.00161787
0.00161895
0.00163216
0.00239011
0.0396494
0.0169655
0.00151476
0.000900201
0.000881511
0.000880583
0.000880451
0.000882098
0.000904617
0.00151362
0.0168697
0.00857581
0.00130266
0.000796608
0.00077745
0.000776427
0.000777956
0.000775092
0.000787237
0.00128806
0.00850405
0.004954
0.00120559
0.000594553
0.000574436
0.000575869
0.000566758
0.000572898
0.000600358
0.00124847
0.00491841
0.0031583
0.000968735
0.000408827
0.00039534
0.000391566
0.000404971
0.000387468
0.000383373
0.000909195
0.00315208
0.00217181
0.000699772
0.000278052
0.000253293
0.000261833
0.000239657
0.00026559
0.00031516
0.000714702
0.00217559
0.00157763
0.000528281
0.00018208
0.000208442
0.000170279
0.000210159
0.000171614
0.000260417
0.000582689
0.00158785
0.00120265
0.000417409
0.000133602
0.000172495
0.000148193
0.000180605
0.000133726
0.000188428
0.000447906
0.00121423
0.000952061
0.000324703
0.000100739
0.000133311
0.000129939