/*--------------------------------*- C++ -*----------------------------------*\
| =========                 |                                                 |
| \\      /  F ield         | OpenFOAM: The Open Source CFD Toolbox           |
|  \\    /   O peration     | Version:  4.1                                   |
|   \\  /    A nd           | Web:      www.OpenFOAM.org                      |
|    \\/     M anipulation  |                                                 |
\*---------------------------------------------------------------------------*/
FoamFile
{
    version     2.0;
    format      ascii;
    class       volScalarField;
    location    "100";
    object      nut;
}
// * * * * * * * * * * * * * * * * * * * * * * * * * * * * * * * * * * * * * //

dimensions      [0 2 -1 0 0 0 0];

internalField   nonuniform List<scalar> 
12000
(
0.00382395
0.00374652
0.00374172
0.00374045
0.00374012
0.0037401
0.00374038
0.00374183
0.00375026
0.00382857
0.00226253
0.00223626
0.00223429
0.00222953
0.00222798
0.00222798
0.00222945
0.00223351
0.00223457
0.00225873
0.00146308
0.00145852
0.00146133
0.0014554
0.00145307
0.00145309
0.00145547
0.00146106
0.00145853
0.0014629
0.00103176
0.00104515
0.00104548
0.00103958
0.00103718
0.00103726
0.0010399
0.00104596
0.00104604
0.00103271
0.000779302
0.000804171
0.000798029
0.000792086
0.000789565
0.000789637
0.000792319
0.000798046
0.000805213
0.000782442
0.000618559
0.000648189
0.000638023
0.000632583
0.000630259
0.000630251
0.000632464
0.000637333
0.000649756
0.000622734
0.000509574
0.000534149
0.000528164
0.000524128
0.000521606
0.000521661
0.000524165
0.000527362
0.000534833
0.000514028
0.000434233
0.000455971
0.000451896
0.000447721
0.000446461
0.000446476
0.000447367
0.000450982
0.000458278
0.000438017
0.000378503
0.000393476
0.000394475
0.000391735
0.000390778
0.000390825
0.000392216
0.000393761
0.000395019
0.000381738
0.0003366
0.000347736
0.000353437
0.00034961
0.000348102
0.000348317
0.000349782
0.000351624
0.000348951
0.000339282
0.000303851
0.00031184
0.000313567
0.000314793
0.000313231
0.000313088
0.000314854
0.000316171
0.000314042
0.000306484
0.000277814
0.000285707
0.000288247
0.000287986
0.000287627
0.000287706
0.000288759
0.000290547
0.000287182
0.000280492
0.000256429
0.000264775
0.000268859
0.000267894
0.000267327
0.000267686
0.000268553
0.000270211
0.000265945
0.000259407
0.00023859
0.000247492
0.000251999
0.000251071
0.000250527
0.000250671
0.000251776
0.000253145
0.000248389
0.00024205
0.00022347
0.000232955
0.000237616
0.000236705
0.000236199
0.000236422
0.000237469
0.000238646
0.000234068
0.000227647
0.00021042
0.000220475
0.00022492
0.000224275
0.000223868
0.000224142
0.000225178
0.00022622
0.000222104
0.000215563
0.000198926
0.000209519
0.000214059
0.000213501
0.000213179
0.000213563
0.000214595
0.000215619
0.000211997
0.000205353
0.000188611
0.00019982
0.000204232
0.00020407
0.00020391
0.000204424
0.000205378
0.000206533
0.000203225
0.000196607
0.000179156
0.000191054
0.000195768
0.000195774
0.000195731
0.000196317
0.000197424
0.000198806
0.000195689
0.000189173
0.000170253
0.000182907
0.000188215
0.000188448
0.000188627
0.000189412
0.000190488
0.000191989
0.000189028
0.000182718
0.000161645
0.00017542
0.000181289
0.000181859
0.000182172
0.000183018
0.000184295
0.000186108
0.000183443
0.000177356
0.000152945
0.000168035
0.000174714
0.000175891
0.000176505
0.000177688
0.000178915
0.000180866
0.000178482
0.000172681
0.000143746
0.000160555
0.000168746
0.000170354
0.000171096
0.000172462
0.000174088
0.000176446
0.000174586
0.000169106
0.000133307
0.000152517
0.000162531
0.000165173
0.000166446
0.000168183
0.000169888
0.000172428
0.000171068
0.000166028
0.0001206
0.000142947
0.0001561
0.000160005
0.000161549
0.000163561
0.000165999
0.000169243
0.000168669
0.000164113
0.000102255
0.000131091
0.000148504
0.000154745
0.000157498
0.000159939
0.000162365
0.000166173
0.000166327
0.000163013
7.5016e-05
0.000113911
0.000138898
0.000148235
0.000151982
0.000155368
0.000159026
0.000163848
0.000165224
0.000161821
6.31748e-05
9.26266e-05
0.000124471
0.00013946
0.000147581
0.000151426
0.000154562
0.000161312
0.000163913
0.000164562
7.31401e-05
8.63907e-05
0.000101026
0.000120354
0.000135187
0.000145181
0.000152493
0.000157106
0.000164977
0.000162485
9.18915e-05
0.000103572
0.000107843
0.000101095
0.000120327
0.000126315
0.000137808
0.00015574
0.000160065
0.00016983
0.00374651
6.30632e-05
5.14754e-05
5.14352e-05
5.14443e-05
5.14442e-05
5.14351e-05
5.14746e-05
6.30053e-05
0.00374321
0.0022362
9.80497e-06
6.6402e-06
6.60302e-06
6.59911e-06
6.59532e-06
6.59945e-06
6.62571e-06
9.81027e-06
0.00220675
0.00145839
2.7419e-05
2.33072e-05
2.29042e-05
2.28997e-05
2.28406e-05
2.29197e-05
2.34539e-05
2.746e-05
0.00143286
0.00104493
7.9841e-05
0.000110399
0.00010804
0.000108038
0.000107547
0.000106715
0.000107188
8.21112e-05
0.00101895
0.000803907
0.000179284
0.000205968
0.00020508
0.000198286
0.0001957
0.000200164
0.000194931
0.000185143
0.000784293
0.000647894
0.000237024
0.000231114
0.000204387
0.000209672
0.000205142
0.000191489
0.000196257
0.000252495
0.000636049
0.000533832
0.000213173
0.000127297
0.000126213
0.000108873
0.000106286
0.000124304
0.000124529
0.00022376
0.000528636
0.000455532
0.000188809
0.000135261
8.16487e-05
0.000111859
0.000109453
6.73733e-05
7.44887e-05
0.000186804
0.000456678
0.000392993
0.000169496
0.000114878
4.50252e-05
0.000102166
0.00010085
6.81287e-05
8.30858e-05
0.000169498
0.000396435
0.000347066
0.000210471
0.000143931
0.000102456
0.000118162
0.000121061
0.000115213
0.000102462
0.000152318
0.000351375
0.000311145
0.000122528
4.61477e-05
4.1181e-05
5.69286e-05
5.36572e-05
4.7633e-05
3.56567e-05
0.000111806
0.000316977
0.000284837
0.000119704
3.41037e-05
2.20794e-05
4.7805e-05
4.98114e-05
4.26155e-05
2.69214e-05
0.000119679
0.000290037
0.000263691
0.000126707
4.91278e-05
2.59947e-05
3.53846e-05
4.44518e-05
4.34041e-05
3.92601e-05
0.000131578
0.000268215
0.000246171
0.000126049
4.72669e-05
3.35289e-05
2.98723e-05
3.76677e-05
3.91817e-05
4.21674e-05
0.000131645
0.000250104
0.000231369
0.000130263
4.78802e-05
3.73094e-05
2.72325e-05
3.72748e-05
4.20895e-05
3.92065e-05
0.000140398
0.000235295
0.000218595
0.000132083
4.19189e-05
3.59341e-05
3.12029e-05
3.6619e-05
4.38583e-05
4.2355e-05
0.000138464
0.000223171
0.000207291
0.000134905
4.09452e-05
3.76793e-05
3.21136e-05
3.82542e-05
4.56721e-05
4.48383e-05
0.000134242
0.000212926
0.000197184
0.000135589
4.46523e-05
4.04302e-05
3.48449e-05
3.77644e-05
4.70009e-05
4.73809e-05
0.00012897
0.000204313
0.000187957
0.000137065
4.85244e-05
4.32591e-05
3.70638e-05
3.74086e-05
4.6167e-05
5.05183e-05
0.000122902
0.000196642
0.000179263
0.000140564
5.52782e-05
4.60945e-05
3.91942e-05
4.01278e-05
4.69936e-05
5.34226e-05
0.000118172
0.00019003
0.000171256
0.000151471
6.11039e-05
4.89252e-05
4.10914e-05
4.2294e-05
4.98557e-05
5.48201e-05
0.000113872
0.000183902
0.000163312
0.00015527
6.77483e-05
5.19792e-05
4.36889e-05
4.46064e-05
5.10039e-05
5.73983e-05
0.000110619
0.000178741
0.000155465
0.000160537
8.17751e-05
5.58176e-05
4.70615e-05
4.64938e-05
5.26931e-05
5.99823e-05
0.000108235
0.000173769
0.000147205
0.000160758
9.18961e-05
6.13983e-05
5.32848e-05
4.7541e-05
5.56205e-05
6.25925e-05
0.000105807
0.000169865
0.000138097
0.000166418
9.90393e-05
6.70025e-05
5.82494e-05
5.26341e-05
5.79295e-05
6.59579e-05
0.000103328
0.00016573
0.00012741
0.000170032
0.0001246
7.8954e-05
6.75047e-05
5.81767e-05
6.18243e-05
6.65736e-05
0.000101247
0.000163071
0.000113947
0.000181647
0.000136623
9.05042e-05
7.51343e-05
6.81561e-05
6.92183e-05
7.36507e-05
9.57822e-05
0.000158321
9.72275e-05
0.00019227
0.000171768
0.000112529
9.02803e-05
7.69089e-05
7.7586e-05
7.62863e-05
8.83062e-05
0.000159901
8.60331e-05
0.000212218
0.000200046
0.00014215
0.000108102
9.3785e-05
9.16839e-05
9.24058e-05
0.000109102
0.000144373
8.74579e-05
0.000235401
0.000237112
0.000203241
0.000136635
0.000110438
0.000105025
0.000105295
0.000121097
0.000171298
0.00374172
5.14779e-05
4.16942e-05
4.1676e-05
4.1678e-05
4.16786e-05
4.16762e-05
4.16944e-05
5.14405e-05
0.00373314
0.00223423
6.64152e-06
2.8615e-06
2.92853e-06
2.83903e-06
2.93501e-06
2.91046e-06
2.86356e-06
6.64421e-06
0.00219911
0.0014612
2.34152e-05
6.00083e-07
4.6885e-07
3.14411e-07
4.7442e-07
4.54434e-07
6.21364e-07
2.30731e-05
0.00143242
0.00104522
0.000109246
1.12844e-07
4.88489e-08
3.62667e-09
5.40993e-08
5.68944e-08
1.16527e-07
0.000109115
0.00101906
0.000797818
0.000209987
5.7948e-07
1.81421e-07
1.19886e-07
3.39432e-07
3.80526e-07
4.64979e-07
0.000214775
0.00078186
0.000637684
0.00022424
1.58715e-06
1.41559e-06
8.66152e-07
1.94925e-06
3.44542e-06
1.74585e-06
0.000227378
0.000630957
0.000528003
0.00012618
1.9091e-06
4.10595e-06
3.56809e-06
3.33737e-06
2.73774e-06
1.17022e-06
0.000158592
0.000527006
0.000450898
0.000129999
2.05799e-06
1.53807e-06
5.6271e-06
1.0397e-06
1.33221e-06
2.55394e-06
8.93263e-05
0.00045231
0.000394231
0.000111088
7.14609e-07
2.34946e-06
3.2541e-06
2.75353e-06
2.83052e-06
1.4215e-06
6.44821e-05
0.000396408
0.000351522
0.000130681
1.04416e-06
1.23602e-06
1.62288e-06
1.57585e-06
5.8175e-07
2.22427e-06
4.68766e-05
0.000353121
0.000314248
4.13603e-05
6.20098e-07
1.96326e-06
1.40551e-06
1.61715e-06
4.83256e-07
7.53394e-07
6.40579e-05
0.000319686
0.000288232
3.80157e-05
5.38116e-07
2.58728e-07
4.04398e-07
1.52881e-07
4.55786e-07
4.23949e-07
2.44738e-05
0.000291762
0.000267998
5.33853e-05
3.99299e-07
2.20605e-07
2.84178e-07
9.13869e-08
1.64393e-07
4.08896e-07
3.49531e-05
0.000270759
0.0002508
5.82814e-05
5.22787e-07
2.86304e-07
2.51316e-07
9.54423e-08
1.76347e-07
4.33801e-07
4.10714e-05
0.000253293
0.000235917
5.77355e-05
8.39007e-07
4.40314e-07
2.35431e-07
1.25778e-07
2.7252e-07
5.48868e-07
4.70787e-05
0.00023843
0.000223062
5.76359e-05
1.40214e-06
5.72513e-07
3.05224e-07
1.63721e-07
3.80431e-07
7.034e-07
4.33165e-05
0.000225933
0.000211707
6.11308e-05
2.38722e-06
7.93066e-07
4.00235e-07
2.15602e-07
5.8324e-07
9.28603e-07
4.38473e-05
0.000214951
0.000201601
6.57638e-05
3.01202e-06
9.06839e-07
5.69049e-07
2.40414e-07
7.76359e-07
1.13134e-06
4.50672e-05
0.000205839
0.000192464
7.30837e-05
4.59705e-06
1.44425e-06
7.52655e-07
3.306e-07
9.98061e-07
1.34293e-06
4.45646e-05
0.000197614
0.000184016
7.91325e-05
5.63369e-06
1.44934e-06
9.26842e-07
4.58542e-07
1.21547e-06
1.4536e-06
4.3856e-05
0.000190845
0.000176091
8.77146e-05
8.52776e-06
1.86158e-06
1.1339e-06
6.10551e-07
1.48486e-06
1.71497e-06
4.29214e-05
0.000184127
0.000168477
9.3685e-05
1.09325e-05
2.13657e-06
1.31517e-06
8.65465e-07
1.81744e-06
1.89609e-06
4.22502e-05
0.000178979
0.000161018
0.000103671
1.49698e-05
3.02504e-06
1.91797e-06
1.06599e-06
2.15593e-06
2.31381e-06
3.98078e-05
0.000173109
0.000153376
0.000111521
2.05159e-05
4.36747e-06
2.43574e-06
1.52054e-06
2.58547e-06
2.51803e-06
3.86423e-05
0.000169019
0.000145469
0.000128351
2.75423e-05
6.63504e-06
4.01736e-06
1.91486e-06
3.10254e-06
3.30415e-06
3.48488e-05
0.000163653
0.000136912
0.000137124
4.44548e-05
1.00396e-05
5.29771e-06
3.2529e-06
3.65342e-06
3.62857e-06
3.21141e-05
0.000159761
0.000127532
0.000148224
6.8241e-05
1.77522e-05
7.94389e-06
4.43286e-06
4.78474e-06
4.99411e-06
2.80066e-05
0.000153609
0.000116791
0.00016268
9.50406e-05
2.77361e-05
1.22717e-05
7.82004e-06
6.31319e-06
5.78507e-06
2.59503e-05
0.000151007
0.000105165
0.00017859
0.000130948
4.60471e-05
1.85725e-05
1.12519e-05
9.57476e-06
8.90103e-06
2.17557e-05
0.000139298
9.585e-05
0.000199339
0.000170123
8.41878e-05
3.18404e-05
1.79189e-05
1.30092e-05
1.13853e-05
2.19275e-05
0.0001361
0.00374045
5.14377e-05
4.1676e-05
4.16581e-05
4.16603e-05
4.16602e-05
4.1658e-05
4.16759e-05
5.14006e-05
0.00373145
0.00222947
6.60529e-06
2.91587e-06
2.90903e-06
2.79306e-06
2.90639e-06
2.91062e-06
2.87589e-06
6.61202e-06
0.00219437
0.00145527
2.29639e-05
4.56133e-07
4.58093e-07
3.46248e-07
4.77902e-07
4.72432e-07
3.80021e-07
2.26558e-05
0.00142734
0.00103941
0.000108177
5.79098e-08
2.85572e-08
1.17481e-10
2.78705e-08
2.8938e-08
2.14301e-08
0.000108735
0.00101497
0.000791788
0.000203656
2.79307e-07
1.74376e-10
1.2788e-14
4.49675e-10
3.3922e-10
2.10303e-07
0.000206159
0.000777849
0.000632401
0.000205085
2.16939e-06
1.55651e-08
2.06435e-14
2.73971e-09
8.23729e-10
4.62306e-07
0.00022699
0.000627335
0.000523512
0.000114905
1.72135e-06
3.79745e-08
2.7814e-11
3.49464e-08
2.19449e-10
9.93057e-08
0.000123134
0.000523716
0.000447329
0.000107394
3.48697e-06
1.4835e-08
4.30856e-11
2.12313e-09
1.19435e-09
1.19203e-07
0.00012694
0.000450037
0.000391591
9.47041e-05
1.7737e-06
2.62537e-08
1.97503e-10
3.53877e-10
2.02512e-09
7.21323e-08
0.000108873
0.000394635
0.000349117
0.000106811
5.17743e-06
3.43942e-09
1.74168e-09
3.92413e-10
3.19786e-10
8.57797e-08
0.000121506
0.00035312
0.000314205
4.36459e-05
1.03836e-06
2.02503e-09
2.40396e-09
7.68949e-11
1.29687e-10
6.39122e-09
4.75821e-05
0.000317062
0.000287911
3.50091e-05
4.61015e-07
1.92225e-10
1.06718e-09
7.47024e-14
1.23962e-10
1.22087e-08
4.16409e-05
0.000290777
0.000267199
4.81916e-05
3.67878e-07
1.58509e-10
8.40874e-11
6.95111e-14
2.64141e-11
2.12416e-08
3.86344e-05
0.000270232
0.000249777
4.76767e-05
3.97021e-07
2.28949e-10
7.34264e-11
1.4259e-12
1.89101e-11
2.79419e-08
3.75815e-05
0.000253438
0.000234761
4.44425e-05
5.68071e-07
1.38318e-09
1.80934e-10
2.33554e-11
1.70955e-10
1.43435e-08
3.15897e-05
0.000238953
0.000221746
4.55873e-05
9.17149e-07
6.60848e-09
5.94905e-10
7.26102e-11
2.68636e-10
9.20551e-08
3.32802e-05
0.000226662
0.000210426
4.92701e-05
1.35585e-06
2.19402e-08
1.03322e-09
5.84467e-10
1.70312e-09
7.99838e-08
3.47418e-05
0.000215771
0.000200314
5.20014e-05
2.1142e-06
4.67751e-08
1.75338e-09
6.45324e-10
5.11619e-10
9.394e-08
3.54042e-05
0.000206657
0.000191209
5.92869e-05
2.93468e-06
8.84143e-08
7.85137e-09
1.52147e-09
1.37548e-09
1.25037e-07
3.63086e-05
0.000198224
0.000182793
6.33264e-05
4.14165e-06
1.55695e-07
5.41522e-09
7.00516e-10
3.40924e-09
1.36722e-07
3.60442e-05
0.000191388
0.000174881
7.46224e-05
5.79576e-06
2.84555e-07
3.81451e-08
4.75787e-09
2.04265e-09
2.22305e-07
3.75364e-05
0.000184526
0.000167269
8.11251e-05
8.53935e-06
4.92509e-07
2.32448e-08
2.75089e-09
1.5833e-08
1.8822e-07
3.77553e-05
0.000179417
0.000159822
9.50276e-05
1.15315e-05
8.20037e-07
1.37815e-07
3.0058e-08
1.45072e-08
2.86727e-07
3.61569e-05
0.000173419
0.000152302
0.000102984
1.73637e-05
1.59864e-06
9.39038e-08
1.16628e-08
2.52458e-08
2.81555e-07
3.52506e-05
0.000169416
0.000144536
0.000122691
2.28733e-05
2.55552e-06
4.27093e-07
7.74207e-08
3.42556e-08
2.80649e-07
3.23167e-05
0.000163617
0.000136418
0.000131503
3.66147e-05
5.07226e-06
4.50187e-07
6.14748e-08
6.21135e-08
3.06183e-07
3.00839e-05
0.000160216
0.000127608
0.000141679
5.83674e-05
8.6576e-06
1.7117e-06
4.54658e-07
1.30286e-07
3.17909e-07
2.53371e-05
0.000153819
0.000117946
0.000152203
8.12183e-05
1.89e-05
2.69119e-06
4.08745e-07
1.84931e-07
3.0697e-07
2.13589e-05
0.000149223
0.000107212
0.000164951
0.000109256
2.93574e-05
6.80162e-06
2.06394e-06
2.87359e-07
3.78881e-07
1.4911e-05
0.000139149
9.56289e-05
0.000178849
0.000141449
5.3974e-05
1.37523e-05
3.2915e-06
9.24852e-07
4.51979e-07
1.09533e-05
0.000134258
0.00374012
5.14468e-05
4.16782e-05
4.16603e-05
4.16625e-05
4.16625e-05
4.16604e-05
4.16781e-05
5.14096e-05
0.00373111
0.00222793
6.59859e-06
2.91485e-06
2.78868e-06
2.78115e-06
2.78312e-06
2.90258e-06
2.87375e-06
6.60482e-06
0.00219289
0.00145294
2.29563e-05
4.77614e-07
3.32518e-07
3.52066e-07
3.46793e-07
4.42222e-07
3.8297e-07
2.26872e-05
0.00142526
0.00103697
0.000107251
3.66977e-08
3.29906e-10
1.66896e-09
1.95539e-10
2.40174e-08
2.40428e-08
0.000107126
0.00101303
0.000789329
0.00020011
1.10826e-07
9.35401e-16
1.17082e-14
2.61579e-16
1.35038e-09
2.10869e-07
0.000207151
0.000775909
0.000629928
0.000197156
1.07618e-06
1.665e-14
6.03899e-18
6.29376e-20
1.47246e-10
3.33205e-07
0.000208602
0.000625212
0.000521207
0.000111059
4.43512e-06
3.36475e-09
9.33745e-19
7.80648e-14
5.88534e-13
1.8213e-07
0.000133936
0.000521768
0.000445214
0.000101842
3.44789e-06
2.31043e-08
1.5141e-13
2.76191e-14
2.01562e-11
7.47037e-08
7.76942e-05
0.000447312
0.000389731
9.13839e-05
2.71989e-06
3.68404e-09
1.3888e-12
3.99936e-15
1.44661e-13
1.77506e-08
5.51607e-05
0.000392663
0.000347287
0.000103444
2.37404e-06
2.03538e-10
8.96567e-13
3.80314e-14
9.93761e-13
3.42993e-08
5.37084e-05
0.0003497
0.000312773
4.47452e-05
2.10702e-06
7.96371e-12
2.15077e-15
6.10656e-15
1.31581e-11
1.08012e-07
6.89873e-05
0.000317398
0.000286865
4.07592e-05
3.86195e-07
3.57895e-12
4.4068e-17
4.78791e-19
1.84421e-15
9.74816e-10
2.80649e-05
0.000288787
0.000265933
3.09016e-05
3.11759e-07
8.17129e-11
4.79416e-15
1.69807e-19
1.97917e-13
4.79053e-09
3.29195e-05
0.000268589
0.000248719
3.56461e-05
3.47163e-07
2.09332e-09
1.25678e-11
2.29137e-16
3.45609e-13
1.51409e-08
3.18172e-05
0.000252106
0.00023377
3.81602e-05
5.20753e-07
1.4937e-09
2.27067e-12
9.32875e-15
1.08596e-12
1.82125e-08
2.88516e-05
0.000237771
0.000220806
4.07651e-05
9.43292e-07
1.17202e-08
1.24003e-10
3.70952e-14
9.85084e-11
1.09169e-07
2.70963e-05
0.000225515
0.000209658
4.87901e-05
1.34342e-06
2.02919e-08
3.0294e-10
2.32907e-12
9.13598e-11
9.99707e-08
2.76444e-05
0.000214724
0.000199571
5.10885e-05
2.03358e-06
5.64712e-08
3.43463e-10
1.56351e-11
2.16876e-10
9.74421e-08
2.95286e-05
0.000205613
0.000190665
5.67806e-05
2.63684e-06
6.91928e-08
2.63149e-09
3.5536e-13
2.03891e-11
1.30121e-07
2.87936e-05
0.00019713
0.00018233
5.87861e-05
3.72522e-06
1.35908e-07
6.09681e-09
1.17453e-09
3.5268e-10
1.25388e-07
3.11778e-05
0.000190253
0.000174502
6.67208e-05
4.87572e-06
2.16238e-07
1.07259e-08
3.42794e-09
2.86909e-10
2.09869e-07
3.22494e-05
0.000183257
0.00016694
7.17579e-05
7.25753e-06
4.16233e-07
2.02537e-08
8.96363e-09
6.20195e-10
1.8949e-07
3.26014e-05
0.000177963
0.0001595
8.6365e-05
9.78672e-06
6.75957e-07
5.32938e-08
2.99141e-10
4.99511e-10
1.84384e-07
3.36206e-05
0.000171885
0.00015196
9.51177e-05
1.54081e-05
1.30242e-06
8.44814e-08
8.99522e-08
4.83219e-09
2.39187e-07
3.35665e-05
0.000167973
0.00014415
0.000117237
2.09899e-05
2.28726e-06
2.64119e-07
7.20159e-09
2.25446e-09
2.77005e-07
3.28408e-05
0.000162288
0.000135922
0.000127554
3.41081e-05
4.83951e-06
4.5856e-07
1.39381e-07
5.22234e-09
2.63848e-07
3.06286e-05
0.000159227
0.000127035
0.000140282
5.74027e-05
7.74274e-06
1.16249e-06
5.78301e-08
2.00705e-08
2.29258e-07
2.56494e-05
0.000152447
0.000116999
0.000149549
7.88668e-05
1.84458e-05
2.64043e-06
6.51055e-07
9.53547e-08
1.65895e-07
2.1261e-05
0.0001503
0.000105867
0.000166144
0.000109623
2.92032e-05
6.37664e-06
7.35374e-07
8.21985e-08
1.95396e-07
1.48765e-05
0.000137823
9.26944e-05
0.000175734
0.000141516
5.38658e-05
1.33257e-05
3.54589e-06
8.73711e-07
3.29047e-07
1.06886e-05
0.000132065
0.0037401
5.14468e-05
4.1678e-05
4.16606e-05
4.16627e-05
4.1663e-05
4.16605e-05
4.1678e-05
5.14096e-05
0.00373113
0.00222793
6.60053e-06
2.86312e-06
2.91648e-06
2.87306e-06
2.8935e-06
2.78868e-06
2.92961e-06
6.60178e-06
0.00219294
0.00145294
2.29451e-05
3.49807e-07
4.66488e-07
3.96902e-07
4.46805e-07
3.26387e-07
5.25433e-07
2.26925e-05
0.00142541
0.00103705
0.000107795
3.19423e-08
2.65006e-08
4.5075e-11
2.86622e-08
8.88244e-10
2.26189e-09
0.000106384
0.00101332
0.000789319
0.000194714
2.29295e-07
9.80283e-11
3.36241e-16
6.31311e-11
4.39475e-15
1.37566e-08
0.000204439
0.000776213
0.000629907
0.000202463
3.88998e-07
4.13656e-15
2.56216e-20
7.99352e-18
1.09228e-14
1.17425e-07
0.000201593
0.000625371
0.000521087
0.000104504
5.18265e-08
1.46197e-13
4.27545e-24
1.05394e-20
5.17597e-11
2.13492e-07
0.000131283
0.000521797
0.000445936
0.000109291
4.14162e-08
7.15539e-12
8.01001e-23
1.03137e-17
2.5921e-12
2.11947e-07
7.00369e-05
0.000447324
0.000389897
0.000101604
5.50402e-07
5.66817e-11
2.67046e-19
4.91156e-10
3.37865e-11
5.39246e-07
6.79161e-05
0.000392394
0.000347553
0.000124606
1.80006e-08
1.00512e-11
4.95904e-15
3.04669e-12
9.28349e-10
1.5762e-06
0.000110999
0.000350673
0.000311817
5.53134e-05
3.55176e-08
1.11058e-11
4.22004e-15
2.40757e-12
1.37376e-09
1.16274e-06
4.28675e-05
0.000315638
0.000286313
4.80143e-05
7.45797e-08
2.2574e-11
2.46683e-15
4.0495e-12
5.15035e-10
5.97098e-07
3.28248e-05
0.000288915
0.000265923
3.72533e-05
9.3942e-08
5.2437e-10
7.84803e-14
2.45541e-12
1.14343e-09
1.11157e-06
3.33918e-05
0.000268853
0.000248742
4.31907e-05
5.35593e-07
1.43259e-09
6.49688e-11
2.40179e-12
8.04156e-10
7.52722e-07
3.10953e-05
0.000252212
0.000233716
4.61581e-05
6.11345e-07
1.54167e-09
1.57007e-09
2.33239e-12
3.44773e-10
4.82906e-07
3.06987e-05
0.000237702
0.000220828
4.77498e-05
1.0723e-06
1.64127e-08
7.48419e-10
4.08637e-12
2.23254e-09
1.14085e-06
3.08295e-05
0.00022548
0.000209522
5.22252e-05
1.31306e-06
4.22185e-09
3.97582e-09
6.6747e-12
1.39594e-09
6.23391e-07
3.3518e-05
0.000214569
0.000199548
5.81183e-05
2.67915e-06
1.47933e-07
7.2839e-09
1.13919e-11
1.82605e-09
6.04896e-07
3.73166e-05
0.000205525
0.00019058
6.34061e-05
2.84412e-06
4.22885e-08
3.11403e-10
3.30621e-11
1.94242e-09
6.18824e-07
3.94784e-05
0.000197185
0.0001823
7.05996e-05
3.33558e-06
1.62221e-07
3.26831e-08
1.97951e-10
2.20383e-09
6.35759e-07
4.03864e-05
0.000190438
0.000174522
7.72258e-05
4.05481e-06
1.25109e-07
1.15778e-08
7.00941e-11
2.28496e-09
8.23092e-07
4.08047e-05
0.000183645
0.000167003
8.64981e-05
6.47689e-06
2.75959e-07
1.41223e-08
1.4055e-10
2.92727e-09
7.38202e-07
3.98186e-05
0.00017855
0.000159788
9.42671e-05
9.34879e-06
4.64948e-07
7.9525e-08
1.78716e-09
2.53139e-09
6.65088e-07
3.81176e-05
0.000172627
0.00015234
0.000100395
1.43765e-05
9.2826e-07
2.13467e-08
8.92932e-09
3.25354e-09
6.18625e-07
3.59509e-05
0.000168567
0.000144569
0.000117928
2.07488e-05
2.1365e-06
3.06644e-07
6.22623e-07
4.797e-09
5.49606e-07
3.32664e-05
0.000162837
0.000136306
0.000127385
3.18942e-05
3.76591e-06
2.42866e-07
9.78645e-09
7.72636e-09
4.40697e-07
3.0084e-05
0.000159259
0.000127372
0.000139958
5.83354e-05
8.70674e-06
1.45052e-06
3.22324e-07
9.22326e-09
3.26838e-07
2.6173e-05
0.000153149
0.000117375
0.00014994
8.05677e-05
1.84621e-05
2.18427e-06
2.05565e-07
4.43444e-09
2.78976e-07
2.06764e-05
0.000148496
0.000106273
0.000166959
0.000111534
3.07375e-05
6.84768e-06
1.72326e-06
1.36171e-06
2.35428e-07
1.56818e-05
0.000139303
9.3421e-05
0.000178076
0.000146658
5.63527e-05
1.39049e-05
3.00563e-06
5.87787e-07
3.17368e-07
1.02083e-05
0.000131528
0.00374039
5.14378e-05
4.16759e-05
4.16582e-05
4.16605e-05
4.16608e-05
4.16581e-05
4.16759e-05
5.14007e-05
0.00373148
0.0022294
6.60329e-06
2.90642e-06
2.85359e-06
2.78954e-06
2.84017e-06
2.80749e-06
2.93307e-06
6.60605e-06
0.00219447
0.0014553
2.29163e-05
4.27656e-07
4.40212e-07
3.24514e-07
3.67105e-07
2.76105e-07
5.29236e-07
2.27093e-05
0.00142781
0.00103967
0.000107947
3.28423e-08
3.23484e-08
3.91905e-10
1.54023e-11
1.20773e-09
8.26788e-10
0.000106341
0.001016
0.000791889
0.000194034
2.30218e-07
2.85238e-10
1.76954e-15
6.76295e-17
1.40676e-14
6.06963e-09
0.000203528
0.000778985
0.000632254
0.000202285
4.25834e-07
1.95861e-12
1.42371e-18
2.91556e-18
3.82112e-16
1.09173e-07
0.000202453
0.000627744
0.00052318
0.000104536
1.21656e-07
7.45359e-11
1.81283e-14
4.31865e-14
1.68299e-13
2.8675e-07
0.000129446
0.000524102
0.00044791
0.000110306
2.77368e-08
2.71579e-11
6.59787e-11
1.8214e-13
1.26746e-10
3.77338e-07
7.23374e-05
0.000449765
0.000391739
0.000102151
7.38484e-08
3.34412e-10
1.04842e-10
7.90055e-13
9.68836e-10
1.99147e-06
8.64591e-05
0.000393755
0.000349129
0.000127383
1.02959e-06
6.89346e-11
3.45059e-11
1.90953e-09
1.92933e-09
2.17652e-06
8.93761e-05
0.000352085
0.000313229
5.56659e-05
7.98777e-08
6.90238e-12
6.0938e-11
2.88317e-09
4.49823e-10
2.60638e-06
0.000124169
0.000316129
0.000287405
3.99799e-05
8.27255e-08
5.93441e-12
6.03759e-13
3.7157e-09
1.21231e-10
1.0939e-06
4.32535e-05
0.00028918
0.000267145
5.39268e-05
2.98341e-07
1.06998e-10
5.31518e-13
3.41036e-09
6.5617e-10
1.08673e-06
3.77856e-05
0.000269555
0.000249713
5.13352e-05
8.29511e-07
1.11801e-09
1.52713e-11
1.96528e-09
7.66616e-10
6.57884e-07
2.96977e-05
0.000253139
0.000234657
4.94511e-05
1.13422e-06
5.23788e-09
1.11638e-10
1.15571e-09
2.52379e-10
6.42341e-07
2.37526e-05
0.000238859
0.00022171
5.29557e-05
1.41977e-06
4.17895e-09
8.70751e-11
4.24106e-10
4.52596e-09
7.67868e-07
2.56352e-05
0.00022664
0.00021033
5.86717e-05
3.0423e-06
7.16345e-08
1.45308e-09
2.96774e-09
6.22023e-10
5.45102e-07
2.58839e-05
0.000215905
0.000200218
6.38091e-05
2.70986e-06
1.39342e-07
8.58396e-10
2.61436e-09
2.45435e-09
5.88164e-07
2.56488e-05
0.000206739
0.000191176
7.39009e-05
3.42457e-06
6.52263e-08
4.83064e-09
4.04222e-09
3.54506e-09
5.90459e-07
2.70646e-05
0.000198291
0.000182785
8.12937e-05
4.47555e-06
2.7375e-07
6.35611e-08
5.61909e-09
4.63626e-09
5.2542e-07
2.57553e-05
0.000191302
0.000174897
9.01254e-05
6.26281e-06
2.57819e-07
1.91519e-08
6.04088e-09
3.17225e-09
5.82192e-07
2.66534e-05
0.000184364
0.000167353
9.78091e-05
9.19624e-06
4.42646e-07
9.44191e-08
8.92295e-09
5.37122e-09
5.44421e-07
2.98823e-05
0.000178996
0.000160023
0.000105898
1.27934e-05
7.51639e-07
2.08054e-08
2.31944e-08
9.82583e-09
6.13134e-07
3.11586e-05
0.000173127
0.000152689
0.000112875
1.79619e-05
1.4464e-06
2.39997e-07
1.84252e-08
1.47404e-08
5.89088e-07
3.05696e-05
0.000169026
0.000144935
0.000124749
2.43059e-05
2.77795e-06
1.43613e-07
8.3413e-08
3.41289e-08
5.42599e-07
2.87267e-05
0.000163425
0.00013679
0.000132151
3.68294e-05
4.64737e-06
8.30903e-07
6.65913e-08
4.03354e-08
4.78445e-07
2.46267e-05
0.000159839
0.000127923
0.000142029
5.95514e-05
9.67053e-06
9.03404e-07
3.53513e-07
1.22524e-07
4.35344e-07
1.8521e-05
0.000152976
0.00011827
0.000153679
8.41929e-05
1.94109e-05
3.6177e-06
4.0037e-07
1.47189e-07
4.26029e-07
1.60756e-05
0.000146348
0.000107642
0.000166902
0.000113553
3.23455e-05
6.25589e-06
1.82919e-06
6.17163e-07
4.66751e-07
1.20393e-05
0.000137683
9.64044e-05
0.000182814
0.000148605
5.89642e-05
1.64283e-05
3.6122e-06
1.08043e-06
6.6601e-07
1.10712e-05
0.000132122
0.00374184
5.14774e-05
4.16945e-05
4.1676e-05
4.16782e-05
4.16784e-05
4.16762e-05
4.1694e-05
5.14408e-05
0.0037331
0.00223346
6.62786e-06
2.86527e-06
2.88778e-06
2.87209e-06
2.92888e-06
2.87807e-06
2.85191e-06
6.62979e-06
0.00219868
0.00146089
2.35451e-05
6.40887e-07
3.96513e-07
3.81644e-07
5.3035e-07
4.24855e-07
4.9482e-07
2.32827e-05
0.00143301
0.00104558
0.000106155
1.20119e-07
2.9498e-08
2.30002e-08
1.21814e-09
3.64372e-08
1.10488e-07
0.00010658
0.00102135
0.000797756
0.000196965
4.41218e-07
3.08076e-07
2.10055e-07
1.82876e-08
1.4386e-07
6.16322e-07
0.000198291
0.000784479
0.000637
0.000196263
1.39078e-06
7.44826e-07
3.74442e-07
4.59075e-07
2.3991e-07
1.19161e-06
0.000199209
0.000632272
0.000526683
0.000112718
1.65997e-06
5.30057e-07
3.82962e-07
1.85022e-06
9.10305e-08
1.81454e-06
0.00012628
0.000527275
0.000449913
0.000106706
1.0063e-06
4.8538e-07
1.84234e-07
1.16019e-06
5.35448e-08
1.64026e-06
7.97409e-05
0.000452565
0.000393754
9.54744e-05
1.08747e-06
3.49893e-07
2.73755e-07
3.94726e-07
2.13055e-08
1.52863e-06
7.61877e-05
0.000395817
0.000350539
0.000113454
1.80614e-06
8.01731e-07
1.94736e-07
2.86603e-06
3.68367e-08
2.39347e-06
0.000107465
0.000354156
0.00031481
3.88509e-05
1.05369e-06
4.55975e-09
3.3563e-07
1.07894e-06
9.62519e-08
2.24931e-06
4.73915e-05
0.000316876
0.000288856
2.94971e-05
7.83978e-07
1.07032e-08
1.52928e-08
8.51893e-07
9.98139e-09
1.52549e-06
3.63615e-05
0.000290947
0.000268396
4.35615e-05
6.45967e-07
3.02547e-08
1.43629e-08
4.175e-07
3.03973e-08
2.08948e-06
4.94446e-05
0.000270637
0.000250873
4.24469e-05
7.38277e-07
1.44402e-07
5.61477e-08
5.81616e-07
2.94559e-07
1.9189e-06
4.49214e-05
0.000253423
0.000235865
4.45422e-05
1.50548e-06
2.17586e-07
2.41705e-07
4.30908e-07
2.62861e-07
1.99819e-06
4.62141e-05
0.000238559
0.000222923
4.63535e-05
1.68269e-06
2.44319e-07
1.56692e-07
3.23647e-07
2.32566e-07
2.05467e-06
4.44823e-05
0.000226123
0.000211567
5.04916e-05
2.34412e-06
6.4313e-07
2.36087e-07
6.22236e-07
3.68865e-07
2.13431e-06
4.26076e-05
0.000215315
0.00020144
5.4052e-05
2.80761e-06
6.88464e-07
2.74122e-07
6.97036e-07
1.85183e-07
2.25744e-06
4.07398e-05
0.000206223
0.00019223
6.23356e-05
3.50753e-06
4.67996e-07
3.82805e-07
7.93231e-07
7.10296e-07
2.37456e-06
3.93907e-05
0.000197943
0.000183746
6.75992e-05
4.51887e-06
1.35024e-06
5.46322e-07
9.3191e-07
8.45555e-07
2.46034e-06
3.80098e-05
0.000190995
0.000175786
7.81448e-05
7.17093e-06
9.89091e-07
7.40616e-07
8.74403e-07
6.79317e-07
2.43932e-06
3.7411e-05
0.000184172
0.000168092
8.48459e-05
9.84475e-06
1.38381e-06
1.00464e-06
1.15651e-06
7.38184e-07
2.62021e-06
3.64267e-05
0.000178691
0.000160545
9.82274e-05
1.4448e-05
1.65163e-06
1.21652e-06
1.42342e-06
9.01584e-07
2.59991e-06
3.55665e-05
0.000172854
0.00015279
0.000108239
2.0815e-05
2.42993e-06
1.5655e-06
1.86597e-06
1.18595e-06
2.60445e-06
3.37181e-05
0.000168468
0.000144801
0.000129217
2.95763e-05
4.99588e-06
2.14791e-06
2.35908e-06
1.85601e-06
2.94845e-06
3.15594e-05
0.000162839
0.000136246
0.000138682
4.83775e-05
8.86512e-06
3.90813e-06
3.7009e-06
2.39838e-06
3.22207e-06
2.9289e-05
0.000159449
0.000126865
0.000150731
7.49066e-05
1.71351e-05
5.98434e-06
4.9654e-06
4.26169e-06
4.81491e-06
2.50209e-05
0.000152104
0.000116169
0.00016595
0.000102399
3.03828e-05
1.15433e-05
7.77126e-06
5.60208e-06
5.94581e-06
2.48198e-05
0.000148608
0.000104874
0.000181443
0.000136139
4.85679e-05
1.81436e-05
1.10628e-05
8.57144e-06
8.49023e-06
2.05659e-05
0.000137721
9.60803e-05
0.000200868
0.000171893
8.48557e-05
3.44454e-05
1.79811e-05
1.2006e-05
1.13572e-05
2.03269e-05
0.00013715
0.00375026
6.30114e-05
5.14433e-05
5.14034e-05
5.14125e-05
5.14124e-05
5.14033e-05
5.14434e-05
6.29729e-05
0.00374198
0.00223449
9.82699e-06
6.64601e-06
6.61178e-06
6.60756e-06
6.60407e-06
6.60724e-06
6.63121e-06
9.82778e-06
0.00220123
0.00145841
2.75023e-05
2.31199e-05
2.27555e-05
2.27099e-05
2.26891e-05
2.27803e-05
2.33771e-05
2.75975e-05
0.00142746
0.00104575
8.29029e-05
0.000109212
0.000107986
0.000107206
0.000107394
0.000106674
0.000105229
8.29372e-05
0.00101288
0.000805356
0.000186326
0.000213333
0.000208188
0.000205969
0.00019847
0.00020321
0.000204669
0.000199587
0.000781465
0.000649911
0.000251843
0.000224672
0.000218518
0.000206226
0.000211215
0.00020041
0.00017843