/*--------------------------------*- C++ -*----------------------------------*\
| =========                 |                                                 |
| \\      /  F ield         | OpenFOAM: The Open Source CFD Toolbox           |
|  \\    /   O peration     | Version:  4.1                                   |
|   \\  /    A nd           | Web:      www.OpenFOAM.org                      |
|    \\/     M anipulation  |                                                 |
\*---------------------------------------------------------------------------*/
FoamFile
{
    version     2.0;
    format      ascii;
    class       volScalarField;
    location    "100";
    object      p;
}
// * * * * * * * * * * * * * * * * * * * * * * * * * * * * * * * * * * * * * //

dimensions      [0 2 -2 0 0 0 0];

internalField   nonuniform List<scalar> 
12000
(
0.0764573
0.0767362
0.0764004
0.07628
0.0762424
0.0762409
0.0762756
0.0763935
0.0767272
0.0764454
0.0758901
0.0758737
0.075812
0.0758147
0.0758013
0.0757997
0.07581
0.0758046
0.075864
0.0758775
0.0757718
0.0755346
0.0755975
0.0756461
0.0756481
0.0756462
0.0756406
0.075589
0.0755234
0.0757574
0.075743
0.0754786
0.0755638
0.075592
0.0755921
0.0755898
0.0755854
0.0755534
0.075465
0.0757258
0.0756461
0.0754261
0.0755124
0.0755156
0.0755131
0.0755103
0.0755073
0.0754995
0.0754092
0.075625
0.0755229
0.075348
0.0754303
0.0754202
0.0754198
0.0754163
0.0754097
0.075414
0.0753267
0.0754965
0.0754204
0.075279
0.0753534
0.0753355
0.0753379
0.0753335
0.075322
0.0753324
0.0752516
0.0753867
0.075344
0.0752285
0.0752931
0.0752691
0.0752725
0.0752668
0.0752517
0.075266
0.0751932
0.0753007
0.0752833
0.0751882
0.0752434
0.0752151
0.0752179
0.0752106
0.0751924
0.0752086
0.0751433
0.0752278
0.0752326
0.0751527
0.0751995
0.0751684
0.0751696
0.0751601
0.0751388
0.0751541
0.0750941
0.0751607
0.0751916
0.0751227
0.0751613
0.0751273
0.075126
0.0751136
0.0750889
0.0751014
0.0750452
0.075098
0.0751601
0.0750985
0.0751286
0.0750914
0.0750862
0.0750701
0.0750416
0.0750501
0.074997
0.0750389
0.0751378
0.0750802
0.0751015
0.0750606
0.0750498
0.0750289
0.0749958
0.0749991
0.0749474
0.0749808
0.0751246
0.0750684
0.0750804
0.0750345
0.0750166
0.0749893
0.0749504
0.074947
0.0748949
0.0749209
0.0751216
0.0750644
0.0750658
0.075013
0.0749859
0.0749503
0.0749038
0.0748922
0.0748381
0.0748571
0.0751301
0.0750695
0.0750583
0.0749962
0.0749573
0.074911
0.0748546
0.0748326
0.0747747
0.0747867
0.075152
0.0750857
0.0750591
0.0749846
0.0749306
0.0748702
0.0748011
0.0747662
0.0747019
0.0747065
0.0751894
0.0751152
0.0750697
0.0749786
0.0749055
0.074827
0.0747412
0.0746899
0.074616
0.0746125
0.0752449
0.0751611
0.0750916
0.074979
0.0748816
0.0747799
0.0746722
0.0746002
0.0745124
0.0744993
0.0753205
0.0752265
0.0751267
0.0749866
0.0748587
0.0747273
0.074591
0.0744921
0.0743849
0.07436
0.0754175
0.0753144
0.0751772
0.0750023
0.0748365
0.0746672
0.0744933
0.074359
0.0742248
0.0741846
0.0755341
0.075426
0.0752449
0.0750274
0.074815
0.0745975
0.0743743
0.0741924
0.0740201
0.0739591
0.0756639
0.0755585
0.0753314
0.0750634
0.0747947
0.0745161
0.0742276
0.0739803
0.0737535
0.0736626
0.0757943
0.0757024
0.0754369
0.0751134
0.0747772
0.0744212
0.0740453
0.0737064
0.0733985
0.073262
0.0759066
0.0758388
0.0755596
0.0751824
0.0747666
0.0743119
0.0738182
0.0733474
0.0729134
0.0727015
0.0759826
0.0759457
0.0756968
0.0752796
0.0747706
0.0741892
0.0735346
0.0728691
0.0722293
0.0718814
0.0760202
0.0760134
0.0758432
0.0754119
0.0747986
0.0740567
0.0731819
0.0722238
0.0712286
0.0705919
0.0760471
0.0760834
0.0759991
0.0755708
0.0748517
0.0739137
0.0727364
0.0713283
0.0697076
0.0683731
0.0760562
0.076122
0.0760759
0.0756738
0.0748897
0.0737526
0.0721931
0.0700878
0.0673677
0.0638404
0.0760212
0.0760609
0.0759552
0.0755491
0.0747563
0.0734409
0.0714203
0.0681646
0.0638256
0.0533858
0.0767377
0.0767709
0.0764411
0.0763228
0.0762828
0.0762813
0.0763185
0.0764344
0.0767621
0.0767251
0.075875
0.0758269
0.0757916
0.0757982
0.0757831
0.0757815
0.0757936
0.0757843
0.0758173
0.075862
0.0755362
0.0753181
0.0754029
0.0754581
0.075459
0.0754572
0.0754528
0.0753946
0.075307
0.0755214
0.0754806
0.0752218
0.0753221
0.0753501
0.0753485
0.0753463
0.0753436
0.075312
0.0752082
0.0754629
0.0754287
0.0752047
0.0753074
0.075304
0.0753
0.0752973
0.0752958
0.0752946
0.0751877
0.0754068
0.0753513
0.075166
0.0752668
0.075248
0.0752485
0.0752451
0.0752375
0.0752506
0.0751443
0.075324
0.0752833
0.0751278
0.0752196
0.075192
0.0751978
0.0751935
0.0751786
0.0751988
0.0751001
0.0752483
0.075234
0.0751033
0.0751832
0.0751488
0.0751568
0.0751512
0.0751313
0.0751562
0.0750675
0.0751891
0.0751953
0.0750863
0.0751548
0.0751154
0.0751232
0.075116
0.0750926
0.0751191
0.0750394
0.0751381
0.0751618
0.0750703
0.0751283
0.0750859
0.0750922
0.0750829
0.0750564
0.0750819
0.0750097
0.0750875
0.0751342
0.075055
0.0751025
0.0750586
0.075062
0.0750499
0.0750201
0.0750425
0.0749765
0.0750372
0.0751132
0.0750425
0.0750795
0.0750339
0.075033
0.0750173
0.0749839
0.0750014
0.07494
0.0749875
0.0750988
0.0750341
0.0750607
0.0750124
0.0750055
0.0749849
0.0749474
0.0749589
0.0749005
0.0749363
0.0750919
0.0750304
0.0750464
0.0749939
0.0749791
0.0749523
0.0749094
0.0749137
0.0748564
0.074882
0.0750939
0.0750325
0.0750367
0.0749784
0.0749537
0.0749187
0.0748688
0.0748639
0.0748053
0.0748229
0.0751062
0.0750422
0.0750329
0.0749662
0.074929
0.0748833
0.0748241
0.074808
0.0747456
0.0747564
0.0751306
0.0750613
0.0750361
0.0749578
0.074905
0.0748454
0.0747739
0.0747439
0.0746751
0.0746786
0.0751693
0.0750922
0.0750476
0.0749537
0.0748813
0.0748038
0.0747161
0.0746689
0.0745903
0.0745856
0.0752242
0.0751377
0.0750691
0.0749546
0.0748576
0.074757
0.0746478
0.0745789
0.0744863
0.0744719
0.0752973
0.0752003
0.075102
0.0749608
0.0748331
0.0747029
0.0745655
0.0744686
0.0743566
0.0743303
0.0753897
0.0752823
0.0751479
0.0749729
0.0748072
0.0746392
0.0744646
0.0743313
0.074192
0.0741503
0.0755001
0.0753851
0.0752082
0.0749915
0.0747792
0.074563
0.0743393
0.0741573
0.0739795
0.0739169
0.0756243
0.0755072
0.0752839
0.0750177
0.0747489
0.0744713
0.0741822
0.0739337
0.0737002
0.0736073
0.0757525
0.075643
0.0753759
0.0750534
0.0747169
0.0743611
0.0739841
0.073642
0.073325
0.0731858
0.0758697
0.0757807
0.0754839
0.0751023
0.0746858
0.0742304
0.0737339
0.0732563
0.072808
0.0725914
0.0759592
0.0759026
0.0756069
0.0751711
0.0746609
0.0740788
0.0734181
0.072739
0.072073
0.0717146
0.0760112
0.0759906
0.075739
0.0752656
0.0746507
0.0739094
0.0730229
0.0720379
0.0709898
0.0703236
0.076033
0.0760484
0.075867
0.0753782
0.0746565
0.0737223
0.0725262
0.0710699
0.0693382
0.0679162
0.0760214
0.0760525
0.0759201
0.0754489
0.0746564
0.0735186
0.0719247
0.069733
0.0667964
0.06298
0.0759972
0.0759654
0.075763
0.0753068
0.0745129
0.0732064
0.0711572
0.0677448
0.0631055
0.0517534
0.0764032
0.0764424
0.0761352
0.0760122
0.0759707
0.0759692
0.0760079
0.0761285
0.0764337
0.0763903
0.0758146
0.0757929
0.0757635
0.0757653
0.0757501
0.0757486
0.0757607
0.0757563
0.0757833
0.0758014
0.0756006
0.0754044
0.0754894
0.0755431
0.0755446
0.0755427
0.0755378
0.075481
0.0753933
0.0755857
0.0755676
0.075324
0.0754225
0.0754493
0.0754473
0.0754451
0.0754428
0.0754123
0.0753104
0.0755499
0.0755172
0.0753097
0.0754134
0.0754077
0.075403
0.0754002
0.0753994
0.0754006
0.0752926
0.0754955
0.0754362
0.0752697
0.075376
0.075355
0.075356
0.0753525
0.0753444
0.0753598
0.075248
0.075409
0.0753609
0.0752232
0.0753226
0.0752933
0.0753011
0.0752967
0.0752797
0.0753017
0.0751954
0.0753265
0.0753026
0.0751879
0.0752756
0.0752391
0.0752499
0.0752443
0.0752215
0.0752483
0.0751517
0.075259
0.0752559
0.0751607
0.0752367
0.0751949
0.0752059
0.0751987
0.0751721
0.0752011
0.0751133
0.0751996
0.0752158
0.0751359
0.0752007
0.075156
0.0751657
0.0751565
0.0751265
0.0751547
0.0750747
0.0751424
0.0751817
0.0751124
0.0751661
0.0751201
0.075127
0.0751151
0.0750818
0.0751069
0.0750336
0.0750863
0.0751547
0.0750924
0.0751351
0.0750876
0.0750901
0.0750746
0.0750378
0.0750581
0.0749902
0.075031
0.0751352
0.0750774
0.0751091
0.0750591
0.0750554
0.0750351
0.0749944
0.0750084
0.0749445
0.0749755
0.0751239
0.0750678
0.075088
0.0750342
0.0750224
0.0749959
0.0749503
0.0749565
0.0748947
0.0749175
0.0751216
0.0750644
0.0750722
0.0750127
0.0749909
0.0749562
0.074904
0.0749008
0.074839
0.0748543
0.0751297
0.0750688
0.0750625
0.074995
0.0749605
0.0749153
0.0748541
0.0748396
0.0747753
0.0747834
0.0751499
0.0750827
0.0750601
0.0749812
0.0749312
0.0748722
0.0747991
0.0747707
0.074701
0.0747015
0.075184
0.0751082
0.0750661
0.0749719
0.0749023
0.0748256
0.0747367
0.074691
0.0746124
0.0746046
0.0752339
0.0751475
0.0750816
0.0749672
0.0748733
0.0747738
0.0746637
0.0745965
0.0745045
0.0744869
0.0753009
0.0752027
0.0751078
0.0749671
0.074843
0.0747143
0.0745765
0.0744815
0.0743704
0.0743408
0.0753856
0.0752756
0.0751456
0.0749718
0.0748102
0.0746442
0.0744697
0.0743387
0.0742005
0.0741555
0.0754863
0.075367
0.0751958
0.0749812
0.0747737
0.0745602
0.0743371
0.0741581
0.0739812
0.0739151
0.0755989
0.0754755
0.0752589
0.0749956
0.0747324
0.0744584
0.0741706
0.0739256
0.0736925
0.0735959
0.0757154
0.0755965
0.0753347
0.0750155
0.0746858
0.0743349
0.0739599
0.0736219
0.0733041
0.0731602
0.0758251
0.075721
0.0754221
0.075043
0.0746351
0.0741868
0.0736932
0.0732196
0.0727677
0.0725439
0.0759165
0.0758365
0.0755194
0.0750821
0.0745843
0.0740132
0.0733566
0.0726798
0.0720037
0.0716326
0.0759809
0.0759308
0.0756238
0.0751391
0.0745432
0.0738205
0.0729402
0.0719532
0.070879
0.0701849
0.0760187
0.075997
0.0757277
0.0752189
0.0745279
0.0736257
0.0724395
0.0709724
0.0691752
0.0676852
0.0760374
0.0760313
0.0758118
0.0753276
0.0745806
0.0734921
0.0719155
0.0697018
0.0666238
0.0625866
0.07605
0.0760252
0.0758448
0.075461
0.0747537
0.0735091
0.0714803
0.068028
0.0631501
0.0511172
0.0762842
0.0763255
0.0760136
0.0758897
0.0758479
0.0758464
0.0758854
0.076007
0.0763168
0.0762712
0.0758188
0.075801
0.0757667
0.0757689
0.0757538
0.0757522
0.0757643
0.0757595
0.0757914
0.0758055
0.0756508
0.0754611
0.0755447
0.0756007
0.0756022
0.0756004
0.0755953
0.0755363
0.0754501
0.0756359
0.0755978
0.0753538
0.0754512
0.0754799
0.0754775
0.0754753
0.0754733
0.075441
0.0753403
0.0755801
0.0755228
0.0753086
0.0754099
0.0754042
0.0753988
0.075396
0.0753961
0.0753972
0.0752916
0.075501
0.0754292
0.0752538
0.0753578
0.0753356
0.075336
0.0753326
0.0753251
0.0753417
0.0752321
0.0754019
0.0753471
0.0751994
0.0752969
0.0752658
0.0752735
0.0752692
0.0752524
0.0752762
0.0751717
0.0753123
0.0752841
0.0751584
0.0752439
0.075205
0.075216
0.0752105
0.0751876
0.0752169
0.0751225
0.0752393
0.0752346
0.0751279
0.0752012
0.0751568
0.075168
0.0751609
0.0751342
0.0751663
0.0750813
0.0751765
0.0751937
0.0751023
0.0751643
0.0751172
0.0751269
0.0751178
0.0750879
0.075119
0.0750419
0.0751181
0.0751599
0.0750799
0.0751312
0.0750826
0.0750895
0.0750777
0.0750445
0.0750721
0.0750017
0.0750622
0.0751335
0.0750618
0.0751023
0.0750523
0.0750546
0.0750392
0.0750026
0.0750252
0.0749601
0.0750077
0.075115
0.0750488
0.0750783
0.0750261
0.075022
0.075002
0.0749615
0.0749778
0.0749163
0.0749529
0.0751049
0.0750413
0.0750593
0.0750038
0.0749915
0.0749653
0.0749199
0.0749284
0.0748684
0.074896
0.0751038
0.0750402
0.0750456
0.0749849
0.0749625
0.0749281
0.0748762
0.0748751
0.0748147
0.074834
0.0751129
0.0750465
0.0750378
0.0749695
0.0749345
0.0748896
0.0748288
0.0748161
0.0747529
0.0747641
0.0751338
0.0750621
0.0750369
0.0749578
0.0749072
0.0748487
0.0747759
0.0747491
0.0746802
0.074683
0.0751682
0.0750886
0.0750438
0.0749499
0.07488
0.0748039
0.0747153
0.074671
0.0745928
0.0745865
0.0752174
0.075128
0.0750594
0.0749459
0.0748518
0.0747532
0.0746436
0.0745774
0.0744856
0.0744687
0.0752827
0.0751821
0.0750845
0.0749454
0.0748215
0.0746939
0.0745567
0.0744627
0.0743513
0.0743219
0.0753643
0.0752525
0.0751199
0.0749482
0.0747874
0.0746228
0.0744491
0.0743191
0.0741803
0.0741347
0.0754608
0.0753399
0.0751661
0.0749541
0.0747479
0.0745362
0.0743143
0.0741362
0.0739583
0.073891
0.0755685
0.0754431
0.0752234
0.0749628
0.0747019
0.0744301
0.0741439
0.0738998
0.0736651
0.0735665
0.0756808
0.0755585
0.0752921
0.074975
0.0746485
0.0743007
0.0739277
0.0735904
0.0732699
0.0731228
0.0757897
0.0756793
0.0753719
0.0749931
0.0745895
0.0741456
0.0736544
0.0731809
0.0727244
0.0724954
0.0758865
0.0757959
0.075463
0.0750229
0.0745313
0.0739667
0.0733132
0.0726354
0.0719504
0.0715701
0.0759648
0.0758997
0.0755663
0.0750764
0.0744907
0.0737785
0.0729025
0.0719124
0.0708215
0.0701093
0.0760236
0.0759845
0.0756826
0.0751729
0.0745007
0.0736153
0.0724356
0.0709631
0.069136
0.0676095
0.0760676
0.0760483
0.0758149
0.075351
0.0746375
0.0735737
0.0720073
0.0697894
0.0666719
0.0625735
0.0760987
0.0760831
0.0759616
0.0756513
0.0749923
0.0737715
0.0717522
0.0683026
0.0633983
0.0513365
0.0762481
0.076287
0.0759736
0.0758494
0.0758074
0.0758059
0.0758451
0.075967
0.0762784
0.0762351
0.075807
0.0757874
0.0757532
0.0757553
0.0757401
0.0757385
0.0757507
0.0757459
0.0757778
0.0757936
0.0756547
0.0754639
0.0755479
0.075604
0.0756055
0.0756036
0.0755987
0.0755396
0.0754528
0.0756397
0.0756001
0.0753544
0.0754513
0.0754797
0.075477
0.0754748
0.0754732
0.0754412
0.0753408
0.0755823
0.0755231
0.0753074
0.075408
0.0754015
0.0753955
0.0753928
0.0753933
0.0753953
0.0752904
0.0755013
0.0754324
0.0752579
0.0753624
0.0753396
0.0753397
0.0753362
0.0753291
0.0753463
0.0752363
0.075405
0.0753541
0.0752099
0.0753094
0.0752782
0.0752859
0.0752815
0.0752647
0.0752886
0.0751821
0.0753192
0.0752934
0.0751725
0.0752608
0.0752221
0.0752336
0.075228
0.0752047
0.0752339
0.0751366
0.0752487
0.0752451
0.0751437
0.0752201
0.0751759
0.0751878
0.0751807
0.0751533
0.0751852
0.0750972
0.0751871
0.075205
0.0751188
0.0751842
0.0751373
0.0751479
0.0751389
0.0751079
0.075139
0.0750587
0.0751296
0.0751719
0.0750967
0.0751513
0.075103
0.0751109
0.0750992
0.0750648
0.0750925
0.0750187
0.0750744
0.0751455
0.0750782
0.075122
0.075072
0.0750756
0.0750603
0.0750224
0.0750451
0.0749765
0.0750204
0.0751265
0.0750644
0.075097
0.0750447
0.0750419
0.0750219
0.0749801
0.0749967
0.0749317
0.0749658
0.0751157
0.0750557
0.0750766
0.0750208
0.0750099
0.0749838
0.0749371
0.074946
0.0748828
0.0749083
0.0751138
0.0750531
0.0750614
0.0750003
0.0749792
0.0749451
0.0748918
0.0748912
0.0748279
0.0748456
0.0751218
0.0750579
0.0750519
0.0749831
0.0749495
0.0749049
0.0748428
0.0748308
0.0747649
0.0747748
0.0751414
0.0750717
0.0750491
0.0749696
0.0749204
0.0748623
0.0747883
0.0747622
0.074691
0.0746927
0.0751742
0.0750962
0.0750539
0.0749597
0.0748912
0.0748156
0.074726
0.0746825
0.0746024
0.0745951
0.0752215
0.0751332
0.0750671
0.0749535
0.0748609
0.0747628
0.0746524
0.0745872
0.0744937
0.074476
0.0752845
0.0751847
0.0750895
0.0749505
0.0748281
0.0747012
0.0745634
0.0744705
0.0743578
0.0743276
0.0753635
0.0752519
0.0751216
0.0749503
0.0747911
0.0746274
0.0744534
0.0743246
0.0741848
0.0741386
0.075457
0.0753357
0.0751641
0.0749526
0.0747483
0.0745376
0.0743157
0.074139
0.0739604
0.0738925
0.0755618
0.0754354
0.0752171
0.0749573
0.0746983
0.074428
0.0741419
0.0738994
0.0736642
0.073565
0.0756722
0.0755479
0.0752815
0.0749651
0.0746406
0.0742945
0.073922
0.0735862
0.0732652
0.0731176
0.0757812
0.0756676
0.0753575
0.0749787
0.0745774
0.0741357
0.0736452
0.0731732
0.0727159
0.0724859
0.0758811
0.0757863
0.0754465
0.0750052
0.0745165
0.0739551
0.0733028
0.072626
0.0719395
0.0715572
0.0759654
0.0758957
0.0755514
0.0750594
0.0744785
0.0737713
0.0728975
0.0719079
0.0708139
0.0700978
0.0760315
0.0759884
0.0756759
0.0751664
0.074503
0.0736258
0.0724503
0.0709789
0.069147
0.067614
0.0760815
0.0760595
0.0758265
0.0753741
0.074677
0.0736272
0.07207
0.0698566
0.0667381
0.0626345
0.0761162
0.0761023
0.0760096
0.0757354
0.0751046
0.073906
0.0719036
0.0684664
0.0635765
0.0515334
0.0762482
0.0762871
0.0759737
0.0758495
0.0758075
0.075806
0.0758452
0.0759671
0.0762784
0.0762351
0.0758071
0.0757875
0.0757532
0.0757554
0.0757401
0.0757386
0.0757508
0.075746
0.0757779
0.0757937
0.0756547
0.075464
0.075548
0.0756041
0.0756055
0.0756037
0.0755987
0.0755396
0.0754529
0.0756398
0.0756002
0.0753544
0.0754514
0.0754797
0.0754771
0.0754748
0.0754732
0.0754412
0.0753408
0.0755824
0.0755231
0.0753075
0.075408
0.0754016
0.0753956
0.0753928
0.0753933
0.0753953
0.0752903
0.0755012
0.0754325
0.075258
0.0753624
0.0753396
0.0753397
0.0753362
0.0753291
0.0753463
0.0752363
0.0754049
0.0753541
0.07521
0.0753094
0.0752782
0.0752859
0.0752815
0.0752647
0.0752886
0.0751821
0.0753192
0.0752933
0.0751725
0.0752608
0.0752222
0.0752336
0.075228
0.0752047
0.0752339
0.0751366
0.0752487
0.0752447
0.0751437
0.0752203
0.075176
0.0751878
0.0751807
0.0751533
0.0751853
0.0750973
0.0751869
0.0752045
0.0751189
0.0751844
0.0751374
0.075148
0.0751389
0.075108
0.0751392
0.0750589
0.0751292
0.0751717
0.0750968
0.0751513
0.075103
0.075111
0.0750993
0.0750649
0.0750926
0.0750188
0.0750742
0.0751456
0.0750783
0.0751219
0.0750721
0.0750756
0.0750604
0.0750225
0.0750451
0.0749766
0.0750205
0.0751268
0.0750644
0.0750968
0.0750447
0.075042
0.075022
0.0749802
0.0749967
0.0749318
0.0749661
0.0751162
0.0750557
0.0750765
0.0750209
0.07501
0.0749839
0.0749372
0.0749459
0.0748829
0.0749087
0.0751141
0.0750532
0.0750613
0.0750004
0.0749793
0.0749453
0.074892
0.0748912
0.0748281
0.074846
0.0751221
0.075058
0.0750519
0.0749833
0.0749497
0.0749051
0.074843
0.0748308
0.0747652
0.0747752
0.0751417
0.0750718
0.0750492
0.0749698
0.0749206
0.0748625
0.0747886
0.0747623
0.0746913
0.0746931
0.0751744
0.0750964
0.0750541
0.07496
0.0748914
0.0748159
0.0747263
0.0746826
0.0746027
0.0745956
0.0752217
0.0751336
0.0750675
0.0749538
0.0748612
0.0747632
0.0746528
0.0745874
0.0744941
0.0744766
0.0752847
0.075185
0.0750899
0.0749509
0.0748284
0.0747016
0.0745639
0.0744708
0.0743583
0.0743283
0.0753638
0.0752523
0.0751221
0.0749508
0.0747915
0.0746279
0.074454
0.074325
0.0741853
0.0741393
0.0754574
0.0753361
0.0751645
0.0749532
0.0747488
0.0745383
0.0743165
0.0741396
0.0739611
0.0738934
0.0755623
0.0754357
0.0752176
0.074958
0.074699
0.0744287
0.0741428
0.0739001
0.0736651
0.0735661
0.0756727
0.0755482
0.075282
0.0749659
0.0746414
0.0742955
0.0739231
0.0735872
0.0732664
0.0731189
0.0757814
0.0756677
0.0753579
0.0749796
0.0745784
0.0741368
0.0736466
0.0731745
0.0727174
0.0724876
0.075881
0.0757861
0.0754467
0.0750061
0.0745177
0.0739565
0.0733045
0.0726276
0.0719414
0.0715593
0.0759648
0.0758952
0.0755514
0.0750602
0.0744798
0.073773
0.0728994
0.07191
0.0708164
0.0701009
0.0760306
0.0759875
0.0756755
0.0751669
0.0745043
0.0736279
0.0724525
0.0709813
0.0691509
0.0676187
0.0760804
0.0760586
0.0758258
0.0753744
0.0746783
0.0736299
0.072073
0.0698602
0.0667455
0.0626464
0.0761154
0.0761016
0.0760091
0.0757359
0.0751065
0.0739092
0.0719091
0.0684753
0.0635906
0.0515601
0.0762844
0.0763258
0.0760139
0.07589
0.0758482
0.0758467
0.0758857
0.0760073
0.0763171
0.0762714
0.075819
0.0758012
0.075767
0.0757692
0.075754
0.0757524
0.0757645
0.0757597
0.0757916
0.0758056
0.075651
0.0754613
0.0755448
0.0756008
0.0756024
0.0756005
0.0755955
0.0755364
0.0754502
0.075636
0.075598
0.0753539
0.0754513
0.0754799
0.0754776
0.0754754
0.0754734
0.0754411
0.0753403
0.0755801
0.0755229
0.0753087
0.07541
0.0754043
0.0753988
0.0753961
0.0753961
0.0753973
0.0752916
0.075501
0.0754294
0.0752539
0.0753578
0.0753356
0.0753361
0.0753326
0.0753252
0.0753418
0.0752322
0.0754017
0.0753472
0.0751995
0.075297
0.0752659
0.0752736
0.0752692
0.0752524
0.0752763
0.0751718
0.0753121
0.0752841
0.0751584
0.0752439
0.0752051
0.0752161
0.0752106
0.0751877
0.075217
0.0751225
0.0752392
0.0752342
0.0751279
0.0752014
0.0751569
0.075168
0.0751609
0.0751342
0.0751663
0.0750814
0.0751764
0.075193
0.0751023
0.0751646
0.0751174
0.075127
0.0751179
0.0750879
0.0751191
0.075042
0.0751179
0.0751596
0.07508
0.0751314
0.0750828
0.0750897
0.0750778
0.0750445
0.0750722
0.0750017
0.0750623
0.0751337
0.075062
0.0751024
0.0750525
0.0750548
0.0750394
0.0750027
0.0750253
0.0749602
0.0750081
0.0751156
0.0750491
0.0750784
0.0750264
0.0750223
0.0750022
0.0749616
0.0749779
0.0749164
0.0749536
0.0751057
0.0750417
0.0750594
0.0750041
0.0749919
0.0749656
0.0749201
0.0749286
0.0748687
0.0748967
0.0751047
0.0750406
0.0750459
0.0749854
0.074963
0.0749286
0.0748765
0.0748755
0.0748151
0.0748347
0.0751138
0.0750471
0.0750383
0.0749701
0.0749351
0.0748902
0.0748292
0.0748166
0.0747534
0.0747649
0.0751347
0.0750628
0.0750376
0.0749585
0.0749079
0.0748494
0.0747764
0.0747497
0.0746808
0.074684
0.075169
0.0750895
0.0750447
0.0749508
0.0748808
0.0748048
0.0747159
0.0746717
0.0745936
0.0745876
0.0752184
0.0751292
0.0750605
0.074947
0.0748529
0.0747543
0.0746445
0.0745784
0.0744865
0.07447
0.0752839
0.0751835
0.0750859
0.0749467
0.0748227
0.0746952
0.0745578
0.074464
0.0743525
0.0743232
0.0753658
0.0752541
0.0751214
0.0749497
0.0747889
0.0746244
0.0744506
0.0743208
0.0741818
0.0741362
0.0754625
0.0753416
0.0751678
0.0749558
0.0747498
0.0745383
0.0743163
0.0741384
0.0739603
0.0738929
0.0755703
0.0754449
0.0752253
0.0749649
0.0747042
0.0744327
0.0741464
0.0739027
0.0736678
0.073569
0.0756824
0.0755601
0.0752942
0.0749775
0.0746513
0.0743039
0.0739309
0.073594
0.0732734
0.0731261
0.0757907
0.0756804
0.075374
0.0749959
0.0745928
0.0741494
0.0736585
0.0731856
0.072729
0.0724998
0.0758866
0.0757963
0.0754646
0.0750258
0.074535
0.0739712
0.0733183
0.0726412
0.0719565
0.0715759
0.0759636
0.075899
0.0755671
0.0750791
0.0744946
0.0737836
0.0729086
0.0719197
0.0708296
0.0701175
0.0760212
0.0759826
0.0756823
0.0751747
0.0745045
0.0736209
0.072443
0.0709722
0.0691473
0.0676216
0.0760642
0.0760452
0.075813
0.0753515
0.0746407
0.0735798
0.0720166
0.0698013
0.0666897
0.0625979
0.0760952
0.0760795
0.0759585
0.0756507
0.0749955
0.073779
0.0717664
0.0683212
0.0634266
0.0513832
0.0764036
0.076443
0.0761359
0.0760129
0.0759714
0.0759699
0.0760086
0.0761292
0.0764344
0.0763908
0.075815
0.0757933
0.075764
0.0757657
0.0757506
0.075749
0.0757611
0.0757567
0.0757837
0.0758017
0.0756009
0.0754047
0.0754896
0.0755433
0.0755448
0.0755429
0.075538
0.0754812
0.0753935
0.0755859
0.075568
0.0753241
0.0754226
0.0754495
0.0754474
0.0754452
0.0754429
0.0754123
0.0753103
0.0755499
0.0755175
0.0753098
0.0754134
0.0754077
0.075403
0.0754002
0.0753994
0.0754006
0.0752924
0.0754953
0.0754366
0.0752698
0.0753761
0.075355
0.075356
0.0753525
0.0753445
0.0753599
0.0752481
0.0754086
0.0753613
0.0752233
0.0753225
0.0752932
0.0753011
0.0752967
0.0752797
0.0753019
0.0751957
0.0753259
0.0753032
0.0751879
0.0752754
0.075239
0.07525
0.0752444
0.0752215
0.0752486
0.0751518
0.0752584
0.0752564
0.0751604
0.0752364
0.0751949
0.0752059
0.0751988
0.0751722
0.0752014
0.0751137
0.0751991
0.0752161
0.0751357
0.0752008
0.0751562
0.0751658
0.0751566
0.0751267
0.0751547
0.0750749
0.0751424
0.075182
0.0751127
0.0751668
0.0751204
0.0751271
0.0751152
0.0750821
0.0751065
0.0750335
0.075087
0.075155
0.075093
0.0751361
0.075088
0.0750902
0.0750748
0.0750382
0.0750579
0.0749903
0.0750321
0.0751357
0.0750783
0.0751102
0.0750595
0.0750556
0.0750354
0.0749948
0.0750085
0.0749448
0.0749765
0.0751247
0.0750689
0.0750892
0.0750349
0.075023
0.0749965
0.0749508
0.0749569
0.0748952
0.0749184
0.0751227
0.0750658
0.0750735
0.0750137
0.0749917
0.0749571
0.0749048
0.0749013
0.0748397
0.0748554
0.075131
0.0750704
0.0750641
0.0749961
0.0749616
0.0749164
0.0748551
0.0748403
0.0747762
0.0747848
0.0751514
0.0750847
0.0750619
0.0749827
0.0749326
0.0748736
0.0748003
0.0747716
0.0747021
0.0747031
0.0751859
0.0751106
0.0750683
0.0749737
0.0749041
0.0748273
0.0747382
0.0746922
0.0746138
0.0746064
0.0752362
0.0751503
0.0750842
0.0749693
0.0748754
0.0747759
0.0746657
0.074598
0.0745062
0.0744889
0.0753037
0.075206
0.0751107
0.0749696
0.0748455
0.0747168
0.0745788
0.0744836
0.0743726
0.0743432
0.0753888
0.0752793
0.0751489
0.0749747
0.0748132
0.0746473
0.0744727
0.0743414
0.0742033
0.0741582
0.0754899
0.0753711
0.0751995
0.0749846
0.0747773
0.0745639
0.0743409
0.0741616
0.0739848
0.0739185
0.0756026
0.0754799
0.0752631
0.0749995
0.0747366
0.0744629
0.0741752
0.0739303
0.0736973
0.0736002
0.0757188
0.0756009
0.0753393
0.0750201
0.0746908
0.0743405
0.0739658
0.0736279
0.0733102
0.0731659
0.0758277
0.0757249
0.0754269
0.0750483
0.074641
0.0741936
0.0737005
0.0732273
0.0727757
0.0725514
0.0759177
0.0758392
0.075524
0.0750879
0.074591
0.0740212
0.0733656
0.0726897
0.0720141
0.0716426
0.0759803
0.0759318
0.0756275
0.0751448
0.0745504
0.0738296
0.072951
0.0719656
0.0708925
0.0701984
0.0760159
0.0759959
0.0757296
0.0752233
0.0745347
0.0736352
0.072452
0.0709876
0.0691928
0.0677033
0.0760322
0.0760271
0.0758099
0.0753284
0.0745849
0.0735006
0.0719288
0.0697199
0.0666469
0.0626126
0.0760434
0.076018
0.0758381
0.0754564
0.0747531
0.0735149
0.0714944
0.0680496
0.0631803
0.0511522
0.0767383
0.076772
0.0764423
0.076324
0.0762841
0.0762825
0.0763197
0.0764356
0.0767634
0.0767259
0.0758756
0.0758275
0.0757922
0.0757989
0.0757837
0.0757821
0.0757942
0.0757849
0.075818
0.0758625
0.0755366
0.0753186
0.0754034
0.0754585
0.0754594
0.0754576
0.0754531
0.0753949
0.0753074
0.0755216
0.0754814
0.0752221
0.0753224
0.0753504
0.0753488
0.0753465
0.0753438
0.075312
0.0752083
0.0754632
0.0754294
0.0752051
0.0753076
0.0753042
0.0753002
0.0752974
0.0752959
0.0752945
0.0751875
0.0754072
0.0753519
0.0751663
0.075267
0.0752481
0.0752487
0.0752452
0.0752376
0.0752507
0.0751443
0.0753233
0.0752839
0.0751281
0.0752197
0.0751921
0.075198
0.0751936
0.0751786
0.075199
0.0750998
0.0752471
0.0752347
0.0751035
0.0751832
0.0751488
0.0751569
0.0751513
0.0751313
0.0751562
0.0750669
0.0751885
0.0751966
0.0750861
0.0751544
0.0751154
0.0751233
0.0751162
0.0750927
0.0751193
0.0750392
0.0751377
0.0751632
0.0750702
0.075128
0.0750859
0.0750923
0.0750831
0.0750565
0.0750819
0.0750096
0.0750879
0.0751349
0.0750551
0.0751027
0.0750586
0.0750621
0.0750501
0.0750202
0.0750423
0.0749764
0.0750385
0.0751135
0.0750426
0.07508
0.0750339
0.0750331
0.0750174
0.074984
0.0750015
0.0749404
0.0749889
0.0750993
0.0750343
0.0750614
0.0750125
0.0750056
0.0749852
0.0749475
0.0749593
0.074901
0.0749377
0.0750927
0.0750309
0.0750472
0.0749942
0.0749794
0.0749527
0.0749097
0.0749141
0.074857
0.0748835
0.0750951
0.0750333
0.0750378
0.0749789
0.0749542
0.0749193
0.0748693
0.0748645
0.0748062
0.0748246
0.0751077
0.0750434
0.0750343
0.074967
0.0749299
0.0748843
0.0748249
0.0748088
0.0747467
0.0747582
0.0751325
0.075063
0.0750379
0.074959
0.0749062
0.0748468
0.074775
0.0747451
0.0746765
0.0746806
0.0751715
0.0750947
0.0750501
0.0749555
0.0748831
0.0748057
0.0747176
0.0746705
0.074592
0.0745877
0.075227
0.0751409
0.0750722
0.074957
0.0748599
0.0747595
0.0746499
0.074581
0.0744885
0.0744742
0.0753009
0.0752043
0.0751057
0.0749638
0.0748361
0.0747061
0.0745682
0.0744715
0.0743594
0.0743329
0.0753941
0.0752871
0.0751523
0.0749767
0.074811
0.0746433
0.0744682
0.074335
0.0741956
0.0741534
0.0755051
0.0753907
0.0752134
0.0749962
0.0747839
0.0745681
0.074344
0.0741622
0.0739842
0.0739207
0.0756294
0.0755133
0.07529
0.0750233
0.0747547
0.0744776
0.0741883
0.07394
0.0737063
0.0736124
0.0757572
0.0756494
0.0753828
0.0750601
0.0747239
0.0743688
0.073992
0.0736502
0.0733331
0.0731927
0.0758732
0.0757865
0.0754914
0.0751103
0.0746943
0.0742399
0.073744
0.073267
0.0728187
0.0726007
0.0759608
0.0759069
0.0756147
0.0751804
0.0746712
0.0740905
0.073431
0.0727529
0.0720872
0.0717275
0.0760107
0.0759929
0.0757463
0.0752757
0.0746626
0.0739234
0.073039
0.0720557
0.0710085
0.0703411
0.0760302
0.0760486
0.0758727
0.0753878
0.074669
0.0737381
0.0725455
0.0710924
0.0693623
0.0679396
0.0760158
0.0760479
0.0759193
0.0754526
0.0746648
0.0735326
0.0719452
0.0697594
0.0668265
0.0630058
0.0759899
0.0759571
0.0757532
0.0752982
0.0745086
0.0732099
0.0711714
0.0677693
0.0631372
0.0517667
0.0764573
0.0767361
0.0764002
0.0762797
0.0762421
0.0762405
0.0762753
0.0763933
0.0767272
0.0764447
0.0758901
0.0758736
0.0758116
0.0758142
0.0758008
0.0757992
0.0758095
0.0758042
0.0758637
0.0758769
0.075772
0.0755345
0.0755975
0.075646
0.075648
0.0756461
0.0756405
0.0755888
0.0755231
0.075757
0.0757435
0.0754791
0.0755641
0.0755923
0.0755924
0.07559
0.0755855
0.0755535
0.0754651
0.0757257
0.0756468
0.0754268
0.075513
0.0755162
0.0755136
0.0755108
0.0755077
0.0754997
0.0754096
0.0756251
0.0755238
0.0753488
0.0754311
0.075421
0.0754205
0.0754169
0.0754101
0.075414
0.0753263
0.0754963
0.0754214
0.07528
0.0753545
0.0753366
0.0753388
0.0753342
0.0753227
0.0753325
0.0752508
0.0753862
0.0753452
0.0752298
0.0752945
0.0752704
0.0752735
0.0752677
0.0752526
0.0752663
0.0751931
0.0753005
0.0752849
0.0751902
0.075245
0.0752164
0.075219
0.0752116
0.0751936
0.0752091
0.0751435
0.075228
0.0752343
0.0751547
0.0752008
0.0751692
0.0751705
0.0751611
0.0751399
0.0751552
0.0750951
0.0751615
0.0751928
0.0751238
0.0751618
0.0751279
0.0751267
0.0751146
0.0750898
0.0751027
0.0750472
0.0750995
0.075161
0.0750992
0.0751289
0.0750922
0.075087
0.0750711
0.0750424
0.0750512
0.0749989
0.0750407
0.0751386
0.0750808
0.0751019
0.0750613
0.0750506
0.0750298
0.0749967
0.0750002
0.0749492
0.0749827
0.0751257
0.0750692
0.075081
0.0750351
0.0750172
0.07499
0.0749513
0.0749483
0.074897
0.0749229
0.075123
0.0750655
0.0750666
0.0750137
0.0749865
0.074951
0.0749048
0.0748936
0.0748404
0.0748593
0.0751318
0.0750709
0.0750596
0.0749974
0.0749583
0.0749119
0.0748558
0.0748343
0.0747772
0.0747891
0.0751541
0.0750875
0.075061
0.0749863
0.074932
0.0748716
0.0748026
0.0747682
0.0747045
0.0747091
0.0751922
0.0751177
0.0750723
0.0749811
0.0749076
0.0748289
0.0747432
0.0746923
0.0746187
0.0746153
0.0752484
0.0751643
0.0750951
0.0749823
0.0748845
0.0747826
0.0746748
0.0746031
0.0745155
0.0745025
0.0753249
0.0752308
0.0751313
0.0749909
0.0748626
0.0747308
0.0745944
0.0744957
0.0743884
0.0743636
0.0754227
0.0753197
0.0751828
0.0750078
0.0748417
0.0746719
0.0744977
0.0743635
0.0742289
0.0741889
0.0755399
0.0754322
0.0752516
0.075034
0.0748216
0.0746036
0.0743799
0.074198
0.0740253
0.0739646
0.0756698
0.0755651
0.0753389
0.0750713
0.0748028
0.0745239
0.0742347
0.0739875
0.0737602
0.0736696
0.0757994
0.0757087
0.075445
0.0751225
0.0747871
0.074431
0.0740545
0.0737158
0.0734073
0.0732712
0.0759099
0.0758439
0.0755679
0.0751928
0.0747785
0.0743243