/*--------------------------------*- C++ -*----------------------------------*\
| =========                 |                                                 |
| \\      /  F ield         | OpenFOAM: The Open Source CFD Toolbox           |
|  \\    /   O peration     | Version:  4.1                                   |
|   \\  /    A nd           | Web:      www.OpenFOAM.org                      |
|    \\/     M anipulation  |                                                 |
\*---------------------------------------------------------------------------*/
FoamFile
{
    version     2.0;
    format      ascii;
    class       surfaceScalarField;
    location    "100";
    object      phi;
}
// * * * * * * * * * * * * * * * * * * * * * * * * * * * * * * * * * * * * * //

dimensions      [0 3 -1 0 0 0 0];

internalField   nonuniform List<scalar> 
33700
(
4.93737e-05
0.000901329
4.92955e-05
2.30318e-05
0.000971671
5.46684e-05
8.37901e-06
0.00095782
5.6831e-05
3.12502e-06
0.000948618
5.66341e-05
8.73542e-08
0.000946164
5.68711e-05
-2.95666e-06
0.000946172
5.68696e-05
-8.22674e-06
0.000948639
5.6629e-05
-2.28989e-05
0.000957849
5.68217e-05
-4.92303e-05
0.000971677
5.46533e-05
0.000901453
4.93159e-05
3.15659e-05
0.000838363
3.1397e-05
2.3841e-05
0.000939789
3.96042e-05
1.34395e-05
0.000926563
4.16551e-05
6.13613e-06
0.000914893
4.10255e-05
2.24844e-07
0.000910661
4.14116e-05
-5.70374e-06
0.00091069
4.1408e-05
-1.30569e-05
0.000914974
4.10154e-05
-2.35289e-05
0.000926673
4.16458e-05
-3.12974e-05
0.000939871
3.95739e-05
0.000838699
3.14572e-05
1.63017e-05
0.000806026
1.60316e-05
1.68201e-05
0.000915861
2.3407e-05
1.17502e-05
0.000906986
2.46453e-05
6.06342e-06
0.000896414
2.41628e-05
3.82528e-07
0.000891686
2.46537e-05
-5.32701e-06
0.000891747
2.46493e-05
-1.10964e-05
0.000896591
2.41491e-05
-1.62826e-05
0.000907224
2.46335e-05
-1.5838e-05
0.000916048
2.33777e-05
0.000806753
1.61096e-05
8.94778e-06
0.000788525
8.55154e-06
1.19514e-05
0.000898809
1.40484e-05
9.57438e-06
0.000895222
1.41408e-05
5.24316e-06
0.000886302
1.4444e-05
5.80608e-07
0.00088128
1.50684e-05
-4.12442e-06
0.000881387
1.50641e-05
-8.57871e-06
0.000886616
1.44286e-05
-1.11304e-05
0.000895653
1.41223e-05
-8.2522e-06
0.000899141
1.40297e-05
0.000789864
8.63835e-06
5.58112e-06
0.000777923
5.02341e-06
9.16476e-06
0.000886178
9.05037e-06
8.2876e-06
0.000888393
7.71013e-06
4.76135e-06
0.000880868
8.96381e-06
8.34016e-07
0.000875543
9.66819e-06
-3.15308e-06
0.000875713
9.66451e-06
-6.8555e-06
0.000881371
8.95121e-06
-7.98205e-06
0.000889097
7.68627e-06
-4.60807e-06
0.000886706
9.06391e-06
0.000780136
5.12231e-06
4.37046e-06
0.000769959
3.60159e-06
7.257e-06
0.000876445
6.85598e-06
7.378e-06
0.000884245
4.03699e-06
4.50184e-06
0.000877683
6.07157e-06
1.16062e-06
0.000872222
6.67245e-06
-2.26176e-06
0.000872477
6.66816e-06
-5.38765e-06
0.000878436
6.06827e-06
-5.63203e-06
0.000885324
4.02398e-06
-3.04315e-06
0.000877205
6.91769e-06
0.000773387
3.709e-06
4.2381e-06
0.000762545
3.1891e-06
5.92736e-06
0.000868703
6.06797e-06
6.70303e-06
0.000881458
2.02681e-06
4.38469e-06
0.000875317
4.7011e-06
1.584e-06
0.00086998
5.05926e-06
-1.32921e-06
0.000870351
5.05408e-06
-4.00322e-06
0.000876403
4.71948e-06
-3.74795e-06
0.000883033
2.04417e-06
-2.45382e-06
0.0008697
6.21666e-06
0.000767616
3.32031e-06
4.53378e-06
0.000754918
3.11062e-06
5.14622e-06
0.000862352
5.7573e-06
6.38355e-06
0.000879421
8.20514e-07
4.49561e-06
0.000873185
4.04018e-06
2.13537e-06
0.000868262
4.09852e-06
-3.81222e-07
0.000868795
4.09092e-06
-2.77823e-06
0.000874722
4.09345e-06
-2.25249e-06
0.000881634
8.84591e-07
-2.13968e-06
0.000863577
6.01849e-06
0.000762207
3.27259e-06
4.99399e-06
0.000746861
3.0828e-06
4.85096e-06
0.000856917
5.59816e-06
6.4728e-06
0.00087785
-3.08283e-08
4.86537e-06
0.000871182
3.63148e-06
2.85324e-06
0.000866867
3.42764e-06
6.38926e-07
0.00086762
3.40859e-06
-1.71297e-06
0.000873337
3.75259e-06
-9.98532e-07
0.000880786
1.44409e-07
-1.74559e-06
0.000858331
5.99971e-06
0.000757229
3.2348e-06
5.53884e-06
0.000738359
2.97963e-06
5.16391e-06
0.000851791
5.51824e-06
6.85457e-06
0.00087656
-3.83495e-07
5.41381e-06
0.000869225
3.41599e-06
3.78578e-06
0.000865557
2.9559e-06
1.86111e-06
0.000866627
2.93335e-06
-5.88304e-07
0.000872196
3.60341e-06
1.51719e-07
0.000880288
-2.33018e-07
-1.1974e-06
0.000853631
6.05497e-06
0.000752872
3.16145e-06
6.09984e-06
0.000729555
2.71519e-06
5.74462e-06
0.000846673
5.48378e-06
7.74951e-06
0.000874974
-4.07014e-07
6.31953e-06
0.000867219
3.44724e-06
5.01109e-06
0.000864137
2.7399e-06
3.29591e-06
0.000865647
2.70655e-06
7.55014e-07
0.000871123
3.62263e-06
1.4705e-06
0.00087999
-4.11419e-07
-5.0588e-07
0.000849512
6.09946e-06
0.000749266
3.10114e-06
6.86815e-06
0.00072025
2.44153e-06
6.4656e-06
0.000841546
5.53394e-06
9.12384e-06
0.000872555
-2.35257e-07
7.77804e-06
0.000864943
3.62677e-06
6.62574e-06
0.000862598
2.6974e-06
5.00465e-06
0.000864661
2.61323e-06
2.37755e-06
0.000870002
3.75262e-06
3.06402e-06
0.00087978
-4.72282e-07
2.82302e-07
0.000846265
6.0309e-06
0.000746459
3.09097e-06
8.05237e-06
0.000709952
2.24482e-06
7.74484e-06
0.000836393
5.4602e-06
1.08157e-05
0.000869588
-1.03633e-07
9.74486e-06
0.000862303
3.71105e-06
8.73483e-06
0.000860978
2.63094e-06
7.16755e-06
0.000863746
2.48363e-06
4.37293e-06
0.000868968
3.83076e-06
4.85041e-06
0.00087985
-5.46494e-07
1.14783e-06
0.000844107
5.86213e-06
0.00074447
3.13748e-06
9.67868e-06
0.000698214
2.05616e-06
9.62823e-06
0.000831168
5.27139e-06
1.31339e-05
0.000866185
-1.0669e-07
1.23304e-05
0.000859425
3.67803e-06
1.14841e-05
0.000859316
2.50551e-06
9.92294e-06
0.000863004
2.30089e-06
6.82511e-06
0.000868244
3.82023e-06
6.91107e-06
0.000880417
-6.53439e-07
2.1986e-06
0.000843197
5.62226e-06
0.000743465
3.20449e-06
1.18344e-05
0.000684511
1.86299e-06
1.2276e-05
0.000825692
5.02953e-06
1.62789e-05
0.00086229
-1.14184e-07
1.57665e-05
0.000856351
3.58108e-06
1.5064e-05
0.000857631
2.38238e-06
1.34452e-05
0.000862509
2.11015e-06
9.9103e-06
0.000868007
3.7685e-06
9.36429e-06
0.000881674
-7.13242e-07
3.5235e-06
0.000843647
5.39e-06
0.000743741
3.24771e-06
1.46706e-05
0.000668136
1.69886e-06
1.59195e-05
0.000819645
4.79103e-06
2.04859e-05
0.000857788
-7.03261e-08
2.03112e-05
0.000853042
3.47701e-06
1.97269e-05
0.0008559
2.3092e-06
1.79548e-05
0.000862312
1.96287e-06
1.38425e-05
0.0008684
3.71524e-06
1.23893e-05
0.000883812
-6.87523e-07
5.20586e-06
0.000845622
5.20747e-06
0.000745632
3.31423e-06
1.83717e-05
0.000648136
1.62144e-06
2.0862e-05
0.000812534
4.61476e-06
2.60518e-05
0.000852497
9.35001e-08
2.62831e-05
0.00084939
3.41341e-06
2.57904e-05
0.000854055
2.33006e-06
2.37642e-05
0.000862433
1.89865e-06
1.88898e-05
0.000869556
3.71216e-06
1.62249e-05
0.00088704
-5.6792e-07
7.364e-06
0.000849387
5.09162e-06
0.000749509
3.48488e-06
2.31299e-05
0.000623284
1.71526e-06
2.74497e-05
0.000803623
4.58327e-06
3.34051e-05
0.000846094
4.40148e-07
3.41022e-05
0.000845228
3.45688e-06
3.36616e-05
0.00085199
2.49752e-06
3.12733e-05
0.000862851
1.96216e-06
2.541e-05
0.000871616
3.79621e-06
2.11663e-05
0.000891604
-3.2615e-07
1.01491e-05
0.000855322
5.07826e-06
0.000755841
3.81518e-06
2.91539e-05
0.000592003
2.1198e-06
3.614e-05
0.000791817
4.81303e-06
4.30655e-05
0.00083813
1.02956e-06
4.42991e-05
0.000840307
3.67809e-06
4.3873e-05
0.00084954
2.86684e-06
4.09798e-05
0.000863522
2.21219e-06
3.3852e-05
0.000874715
4.01938e-06
2.76062e-05
0.00089772
1.22322e-07
1.37692e-05
0.000863926
5.22629e-06
0.00076524
4.36624e-06
3.66166e-05
0.000552365
3.01221e-06
4.75456e-05
0.000775417
5.46192e-06
5.564e-05
0.000828064
1.96314e-06
5.75189e-05
0.000834261
4.15673e-06
5.70944e-05
0.000846444
3.50917e-06
5.35485e-05
0.000864331
2.72649e-06
4.48105e-05
0.000878986
4.45778e-06
3.60305e-05
0.000905641
8.51139e-07
1.85038e-05
0.000875833
5.61243e-06
0.000778517
5.22355e-06
4.55604e-05
0.000502183
4.61069e-06
6.22789e-05
0.00075193
6.75855e-06
7.19145e-05
0.000815018
3.40034e-06
7.45622e-05
0.000826578
5.02491e-06
7.41595e-05
0.000842303
4.53354e-06
6.9848e-05
0.000865011
3.62052e-06
5.91308e-05
0.000884479
5.21422e-06
4.70957e-05
0.000915738
1.92986e-06
2.47535e-05
0.000891832
6.33704e-06
0.000796763
6.5049e-06
5.57668e-05
0.00043924
7.16259e-06
8.07939e-05
0.000717904
8.98762e-06
9.27859e-05
0.000797464
5.55028e-06
9.63955e-05
0.000816485
6.47207e-06
9.61123e-05
0.000836488
6.08662e-06
9.10136e-05
0.000865051
5.04777e-06
7.79695e-05
0.000891076
6.43786e-06
6.17637e-05
0.000928432
3.50642e-06
3.30993e-05
0.000912928
7.56491e-06
0.000821477
8.38491e-06
6.65269e-05
0.000361881
1.08146e-05
0.000103105
0.000668902
1.24121e-05
0.000119081
0.000772748
8.7292e-06
0.000124155
0.000802654
8.74625e-06
0.000124273
0.000827983
8.37688e-06
0.000118553
0.000863533
7.22927e-06
0.000102929
0.000898344
8.35006e-06
8.14648e-05
0.000944103
5.78869e-06
4.44487e-05
0.000940417
9.52716e-06
0.000854811
1.11159e-05
7.63018e-05
0.000270143
1.54182e-05
0.000128068
0.000600014
1.71093e-05
0.000151192
0.000736368
1.32432e-05
0.000159089
0.000782533
1.22116e-05
0.000160307
0.000815065
1.16892e-05
0.000154494
0.00085889
1.04463e-05
0.000136312
0.000905274
1.12463e-05
0.00010839
0.000962952
9.07153e-06
6.02108e-05
0.000976033
1.25644e-05
0.000899957
1.50673e-05
8.23125e-05
0.000167698
2.01102e-05
0.000152491
0.000507169
2.26523e-05
0.000188281
0.000681178
1.93874e-05
0.000202311
0.00075107
1.74185e-05
0.000206266
0.000794632
1.64637e-05
0.000201556
0.000848513
1.50749e-05
0.00018148
0.000909827
1.55152e-05
0.000146068
0.000984605
1.37574e-05
8.29431e-05
0.00102201
1.71537e-05
0.000962111
2.07928e-05
7.96721e-05
6.54175e-05
2.25799e-05
0.000169847
0.000389275
2.77031e-05
0.000226954
0.000596735
2.73188e-05
0.000254159
0.000698577
2.52694e-05
0.000264693
0.000760636
2.34413e-05
0.000263579
0.000828003
2.16061e-05
0.000243484
0.000908271
2.16398e-05
0.000200267
0.00100746
2.03593e-05
0.000116843
0.00108147
2.39667e-05
0.00104988
2.9091e-05
5.93817e-05
-1.51948e-05
2.11844e-05
0.000170047
0.00024856
3.00233e-05
0.000259824
0.0004705
3.64329e-05
0.00031206
0.00060955
3.67621e-05
0.000337394
0.000701346
3.39251e-05
0.000345267
0.000789239
3.08649e-05
0.000329707
0.000893614
3.02082e-05
0.000280942
0.00102671
2.95167e-05
0.000172547
0.00115589
3.40147e-05
0.00118105
4.14069e-05
1.33989e-05
-5.53222e-05
2.66558e-05
0.000143742
8.16457e-05
3.65248e-05
0.000275514
0.00028987
4.88195e-05
0.000369327
0.000463138
5.25615e-05
0.000425246
0.000596362
4.90282e-05
0.000453322
0.000717263
4.3877e-05
0.000451603
0.000853542
4.17775e-05
0.000404128
0.00103264
4.15763e-05
0.000267148
0.00124479
4.81279e-05
0.00138889
5.93885e-05
2.3313e-07
-8.43208e-05
2.87001e-05
0.000104457
-6.99514e-05
4.73087e-05
0.000255405
7.08468e-05
6.80234e-05
0.000397159
0.000244479
7.68531e-05
0.000509674
0.000411441
7.23602e-05
0.000586239
0.000577386
6.32718e-05
0.000624859
0.000757004
5.79088e-05
0.000595026
0.00100518
5.73261e-05
0.000472668
0.00129938
6.7875e-05
0.00177494
8.66826e-05
7.61639e-05
3.83777e-06
-0.000164314
0.000176228
2.32197e-05
-0.000193248
0.000284661
5.91491e-05
-9.67783e-05
0.000411534
8.64481e-05
3.10836e-05
0.00056312
9.40323e-05
0.000165744
0.000714827
8.72112e-05
0.000338406
0.000851128
7.74434e-05
0.000543246
0.000901081
7.43133e-05
0.00088095
0.000879832
8.54471e-05
0.00123528
0.000121527
0.00253332
5.47363e-05
0.000971604
2.29576e-05
2.05591e-05
0.00106835
2.05008e-05
6.45305e-06
0.00104969
2.12537e-05
2.27817e-06
0.00103936
2.14496e-05
7.16379e-08
0.0010375
2.15767e-05
-2.14078e-06
0.00103751
2.15766e-05
-6.33145e-06
0.00103938
2.14476e-05
-2.04623e-05
0.00104971
2.12494e-05
-5.46254e-05
0.00106832
2.04976e-05
0.000971724
2.29678e-05
3.97628e-05
0.000939595
2.36516e-05
2.28236e-05
0.00110226
2.26439e-05
1.28956e-05
0.00107834
2.29436e-05
5.84235e-06
0.00106425
2.32036e-05
2.16638e-07
0.00106115
2.34052e-05
-5.4301e-06
0.00106117
2.34038e-05
-1.25456e-05
0.00106432
2.31996e-05
-2.25603e-05
0.00107844
2.29399e-05
-3.96061e-05
0.00110234
2.26135e-05
0.000939888
2.36912e-05
2.36621e-05
0.000915468
1.65053e-05
1.75435e-05
0.00111456
1.72375e-05
1.15833e-05
0.00109252
1.64384e-05
5.76801e-06
0.00107783
1.64145e-05
3.75279e-07
0.00107462
1.65933e-05
-5.05079e-06
0.00107467
1.65906e-05
-1.09624e-05
0.00107798
1.641e-05
-1.70252e-05
0.00109271
1.64381e-05
-2.32888e-05
0.00111478
1.72054e-05
0.000916139
1.65748e-05
1.44204e-05
0.000898123
1.14845e-05
1.4825e-05
0.00111384
1.43758e-05
9.72129e-06
0.0010988
1.29709e-05
4.79257e-06
0.00108443
1.27799e-05
5.6651e-07
0.00108092
1.29984e-05
-3.70446e-06
0.00108102
1.29956e-05
-8.76308e-06
0.0010847
1.27745e-05
-1.39949e-05
0.00109911
1.29661e-05
-1.37848e-05
0.00111428
1.43306e-05
0.000899432
1.15643e-05
9.57194e-06
0.000885078
8.50301e-06
1.3411e-05
0.00110627
1.27869e-05
8.78274e-06
0.00110003
1.11122e-05
4.36601e-06
0.00108677
1.10421e-05
8.0361e-07
0.00108282
1.13408e-05
-2.81623e-06
0.00108297
1.13388e-05
-7.40451e-06
0.00108721
1.10372e-05
-1.22375e-05
0.00110052
1.11088e-05
-8.64155e-06
0.00110699
1.2762e-05
0.000887327
8.5887e-06
7.56401e-06
0.000874768
6.34866e-06
1.2279e-05
0.00109698
1.14308e-05
8.05553e-06
0.0010989
9.39279e-06
4.24926e-06
0.00108706
9.59015e-06
1.09856e-06
0.00108278
9.86655e-06
-2.12688e-06
0.001083
9.86491e-06
-6.1553e-06
0.00108772
9.58861e-06
-1.06549e-05
0.00109966
9.38576e-06
-6.28583e-06
0.00109813
1.14128e-05
0.000878293
6.45862e-06
7.03303e-06
0.000866242
4.68068e-06
1.16272e-05
0.00108796
1.04956e-05
7.501e-06
0.00109712
7.93414e-06
4.24906e-06
0.00108664
8.37122e-06
1.47464e-06
0.00108208
8.52316e-06
-1.39215e-06
0.0010824
8.52096e-06
-4.92071e-06
0.00108759
8.37629e-06
-9.4048e-06
0.00109829
7.90551e-06
-5.35454e-06
0.00108984
1.04566e-05
0.000871422
4.83699e-06
7.05333e-06
0.000858847
3.44934e-06
1.13941e-05
0.00107949
9.88023e-06
7.31433e-06
0.00109514
6.87815e-06
4.44764e-06
0.00108599
7.5507e-06
1.9597e-06
0.00108114
7.52991e-06
-6.41488e-07
0.00108156
7.52629e-06
-3.83856e-06
0.00108732
7.5613e-06
-8.41286e-06
0.00109692
6.82518e-06
-4.87881e-06
0.00108249
9.83624e-06
0.000866161
3.65454e-06
7.33432e-06
0.000852027
2.56474e-06
1.14635e-05
0.0010715
9.45296e-06
7.51901e-06
0.00109298
6.0669e-06
4.90849e-06
0.00108514
7.08939e-06
2.5908e-06
0.00108003
6.84405e-06
1.19887e-07
0.0010806
6.83621e-06
-2.86122e-06
0.00108691
7.14439e-06
-7.41969e-06
0.00109569
5.93e-06
-4.4928e-06
0.00107625
9.30728e-06
0.000862065
2.83743e-06
7.82145e-06
0.0008451
2.08348e-06
1.149e-05
0.00106451
8.83684e-06
8.05976e-06
0.00109037
5.65101e-06
5.64151e-06
0.00108412
6.85925e-06
3.40603e-06
0.00107901
6.21179e-06
9.90639e-07
0.00107975
6.20384e-06
-1.85192e-06
0.00108644
6.90927e-06
-6.27303e-06
0.00109463
5.24331e-06
-4.08775e-06
0.00107137
8.75159e-06
0.000858863
2.27584e-06
8.45187e-06
0.000837606
1.76009e-06
1.15765e-05
0.00105881
8.06405e-06
8.74003e-06
0.00108797
4.83697e-06
6.60679e-06
0.0010831
6.59432e-06
4.45508e-06
0.00107837
5.53593e-06
2.08536e-06
0.00107931
5.51107e-06
-7.21884e-07
0.00108633
6.54529e-06
-5.06018e-06
0.00109407
4.493e-06
-3.52393e-06
0.00106769
8.24554e-06
0.000856605
1.83588e-06
9.40021e-06
0.000829315
1.33831e-06
1.21255e-05
0.00105408
7.53923e-06
9.69575e-06
0.00108632
3.85098e-06
7.83509e-06
0.00108238
6.2226e-06
5.82194e-06
0.00107806
5.02704e-06
3.49029e-06
0.00107931
4.9586e-06
6.07594e-07
0.00108679
6.17658e-06
-3.782e-06
0.00109422
3.76925e-06
-2.83206e-06
0.00106488
7.88911e-06
0.000855504
1.36041e-06
1.05264e-05
0.000820069
9.72817e-07
1.33042e-05
0.00104948
7.2975e-06
1.1242e-05
0.00108478
3.50125e-06
9.52305e-06
0.00108179
6.01788e-06
7.61009e-06
0.0010779
4.70937e-06
5.25522e-06
0.00107956
4.5915e-06
2.19459e-06
0.00108768
6.01233e-06
-2.38684e-06
0.00109491
3.35168e-06
-1.94169e-06
0.00106264
7.66124e-06
0.000855787
9.14307e-07
1.1898e-05
0.000809584
6.52381e-07
1.49909e-05
0.00104455
7.10903e-06
1.33714e-05
0.00108302
3.28483e-06
1.17969e-05
0.00108113
5.93031e-06
9.94093e-06
0.00107781
4.46323e-06
7.50124e-06
0.00108
4.29922e-06
4.1773e-06
0.0010889
5.92849e-06
-6.64495e-07
0.00109608
3.01634e-06
-8.32593e-07
0.00106099
7.44087e-06
0.000857538
6.22534e-07
1.36596e-05
0.000797393
4.04358e-07
1.72419e-05
0.0010391
6.91425e-06
1.62031e-05
0.00108083
3.12669e-06
1.47873e-05
0.00108026
5.8698e-06
1.29729e-05
0.00107773
4.2837e-06
1.03927e-05
0.00108065
4.05405e-06
6.71587e-06
0.00109047
5.8764e-06
1.56331e-06
0.00109779
2.73058e-06
4.70882e-07
0.00106032
7.15425e-06
0.000860744
5.15075e-07
1.59668e-05
0.000782885
2.48458e-07
2.02504e-05
0.00103287
6.74029e-06
1.99195e-05
0.00107803
3.05973e-06
1.86961e-05
0.00107912
5.85101e-06
1.6912e-05
0.00107764
4.18335e-06
1.4136e-05
0.00108152
3.87423e-06
9.98771e-06
0.0010925
5.84064e-06
4.41178e-06
0.00110019
2.49911e-06
2.03786e-06
0.00106108
6.83198e-06
0.000865509
5.88956e-07
1.89881e-05
0.000765305
2.21093e-07
2.42707e-05
0.00102558
6.63175e-06
2.47876e-05
0.00107446
3.15434e-06
2.37961e-05
0.00107763
5.89631e-06
2.20246e-05
0.00107757
4.17925e-06
1.89816e-05
0.0010827
3.76477e-06
1.42181e-05
0.00109513
5.846e-06
8.0092e-06
0.00110349
2.34235e-06
4.00221e-06
0.00106364
6.53929e-06
0.000872196
8.01481e-07
2.28916e-05
0.000743746
3.88381e-07
2.96361e-05
0.00101677
6.65318e-06
3.11169e-05
0.00107002
3.40367e-06
3.04245e-05
0.00107574
6.04339e-06
2.8652e-05
0.00107753
4.31151e-06
2.52489e-05
0.00108432
3.74902e-06
1.96967e-05
0.00109857
5.91625e-06
1.25587e-05
0.001108
2.30084e-06
6.50631e-06
0.00106844
6.32772e-06
0.000881367
1.15102e-06
2.78718e-05
0.000717167
8.31678e-07
3.67708e-05
0.00100576
6.93365e-06
3.93305e-05
0.00106464
3.86062e-06
3.90183e-05
0.00107339
6.34639e-06
3.72318e-05
0.00107756
4.63294e-06
3.33657e-05
0.00108651
3.89106e-06
2.68107e-05
0.00110306
6.08285e-06
1.83369e-05
0.00111419
2.40777e-06
9.71506e-06
0.00107605
6.24361e-06
0.000893775
1.67411e-06
3.4112e-05
0.000684356
1.71426e-06
4.61313e-05
0.000991607
7.5942e-06
4.99858e-05
0.00105806
4.68647e-06
5.01294e-05
0.00107051
6.8987e-06
4.83227e-05
0.00107766
5.21581e-06
4.3887e-05
0.00108941
4.26361e-06
3.60825e-05
0.0011089
6.42352e-06
2.57554e-05
0.00112266
2.71091e-06
1.38677e-05
0.0010872
6.34676e-06
0.000910428
2.43888e-06
4.17433e-05
0.000643941
3.2842e-06
5.82242e-05
0.00097307
8.81566e-06
6.37193e-05
0.00104996
6.00945e-06
6.44341e-05
0.00106699
7.8262e-06
6.26373e-05
0.00107782
6.1746e-06
5.75446e-05
0.00109316
4.96177e-06
4.82016e-05
0.00111644
7.02316e-06
3.53995e-05
0.00113409
3.30497e-06
1.92955e-05
0.00110293
6.72057e-06
0.000932685
3.54485e-06
5.07746e-05
0.000594452
5.8763e-06
7.35541e-05
0.000948385
1.08939e-05
8.12642e-05
0.00103982
7.98609e-06
8.27572e-05
0.00106268
9.29573e-06
8.10857e-05
0.00107792
7.6617e-06
7.53117e-05
0.00109786
6.12298e-06
6.41265e-05
0.00112607
7.98932e-06
4.80938e-05
0.00114932
4.31488e-06
2.64972e-05
0.0011246
7.49395e-06
0.000962432
5.13824e-06
6.09607e-05
0.000534445
9.85999e-06
9.24366e-05
0.000915145
1.41758e-05
0.000103463
0.00102658
1.09436e-05
0.00010612
0.00105721
1.15609e-05
0.000104844
0.00107767
9.90291e-06
9.85193e-05
0.00110345
7.97021e-06
8.52427e-05
0.00113819
9.51254e-06
6.50756e-05
0.00116938
5.90935e-06
3.62388e-05
0.00115412
8.84334e-06
0.00100235
7.43703e-06
7.16094e-05
0.000462789
1.54622e-05
0.000114743
0.000870054
1.90663e-05
0.000131067
0.00100824
1.52584e-05
0.000135728
0.00104979
1.49694e-05
0.000135427
0.00107647
1.31882e-05
0.000129004
0.00110952
1.08019e-05
0.0001136
0.00115298
1.18669e-05
8.8273e-05
0.00119544
8.3442e-06
4.97476e-05
0.00119418
1.10396e-05
0.00105642
1.07475e-05
8.12863e-05
0.0003793
2.23088e-05
0.000139347
0.000808942
2.57017e-05
0.000164489
0.00098105
2.14322e-05
0.000172996
0.00103864
2.00663e-05
0.000174803
0.00107317
1.796e-05
0.00016931
0.00111508
1.50131e-05
0.00015226
0.00117015
1.54034e-05
0.000120856
0.00122865
1.19559e-05
6.92926e-05
0.00124845
1.44495e-05
0.001131
1.55112e-05
8.73237e-05
0.000285736
2.88101e-05
0.000163334
0.000727031
3.35983e-05
0.000203108
0.000938636
2.99558e-05
0.000219396
0.00102001
2.76124e-05
0.000225572
0.00106563
2.48081e-05
0.000223035
0.00111816
2.10652e-05
0.000205893
0.0011884
2.05383e-05
0.000168104
0.00126964
1.71539e-05
9.86093e-05
0.00132234
1.95818e-05
0.00123639
2.2325e-05
8.57743e-05
0.000189292
3.18279e-05
0.000181413
0.00062087
4.05353e-05
0.000244183
0.000871535
4.07572e-05
0.00027566
0.000986735
3.85531e-05
0.000290817
0.00104984
3.45556e-05
0.000295065
0.00111535
2.94369e-05
0.000281574
0.00120451
2.75889e-05
0.000239286
0.0013172
2.4263e-05
0.000147607
0.00142105
2.70028e-05
0.00139345
3.19843e-05
7.04837e-05
0.00011437
3.10528e-05
0.000187325
0.000494646
4.5891e-05
0.000282834
0.000771413
5.34254e-05
0.000341148
0.000927913
5.30659e-05
0.000373949
0.00101871
4.7363e-05
0.000391941
0.0011014
3.98381e-05
0.000389973
0.00121228
3.59828e-05
0.000349922
0.00136612
3.27361e-05
0.000231966
0.00155038
3.68299e-05
0.00163957
4.52959e-05
4.96485e-05
7.21576e-05
2.12376e-05
0.000175954
0.000366561
4.90786e-05
0.000305927
0.000643301
6.61582e-05
0.000406428
0.000834603
6.96651e-05
0.000474888
0.000960467
6.21477e-05
0.000520614
0.0010682
5.07537e-05
0.000546659
0.00120052
4.36509e-05
0.000521191
0.00140882
4.01464e-05
0.000418764
0.00167279
4.79646e-05
0.00208199
6.30552e-05
6.6749e-05
-1.37141e-05
2.30113e-05
0.000180198
3.22103e-05
0.000244141
0.000319418
5.90302e-05
0.000504209
0.000455333
6.76636e-05
0.000717475
0.000575141
6.12541e-05
0.00087344
0.000676274
4.79298e-05
0.00100635
0.00077212
3.79435e-05
0.00114419
0.000803606
3.43867e-05
0.00141729
0.00079304
4.84021e-05
0.00172045
8.2206e-05
0.00291437
5.68967e-05
0.000957766
8.29738e-06
2.13089e-05
0.0010497
6.38981e-06
6.35908e-06
0.00102991
6.3e-06
2.13744e-06
0.00101936
6.31618e-06
6.81064e-08
0.00101732
6.32925e-06
-2.00705e-06
0.00101733
6.32921e-06
-6.24575e-06
0.00101937
6.31533e-06
-2.12221e-05
0.00102993
6.29854e-06
-5.67854e-05
0.00104967
6.38999e-06
0.00095788
8.304e-06
4.18134e-05
0.000926383
1.32287e-05
2.31211e-05
0.00107835
1.2697e-05
1.25911e-05
0.001051
1.23983e-05
5.78193e-06
0.00103685
1.25322e-05
2.1091e-07
0.00103371
1.25955e-05
-5.38076e-06
0.00103374
1.25943e-05
-1.22526e-05
0.00103693
1.25298e-05
-2.28752e-05
0.00105111
1.23938e-05
-4.16857e-05
0.00107843
1.26835e-05
0.000926641
1.32485e-05
2.48965e-05
0.000906607
1.13936e-05
1.67429e-05
0.00109252
1.1237e-05
1.09506e-05
0.00106263
1.06105e-05
5.63106e-06
0.00104793
1.06707e-05
3.6826e-07
0.00104485
1.0734e-05
-4.92911e-06
0.00104491
1.07326e-05
-1.03449e-05
0.0010481
1.06681e-05
-1.62391e-05
0.00106285
1.06077e-05
-2.45338e-05
0.00109271
1.12287e-05
0.000907257
1.143e-05
1.45011e-05
0.000894561
9.03726e-06
1.34214e-05
0.00109878
9.20572e-06
9.00644e-06
0.00107152
8.49828e-06
4.56101e-06
0.00105671
8.45063e-06
5.59703e-07
0.00105333
8.52912e-06
-3.48967e-06
0.00105343
8.52852e-06
-8.06678e-06
0.00105701
8.44855e-06
-1.2606e-05
0.00107187
8.49423e-06
-1.38608e-05
0.0010991
9.19929e-06
0.000895881
9.08323e-06
8.20366e-06
0.000887346
7.52016e-06
1.17302e-05
0.00109999
8.05914e-06
8.18871e-06
0.00107871
7.47241e-06
4.13655e-06
0.00106435
7.46311e-06
7.99398e-07
0.0010604
7.6149e-06
-2.59966e-06
0.00106056
7.61518e-06
-6.8285e-06
0.00106482
7.46223e-06
-1.05529e-05
0.00107924
7.46746e-06
-7.2579e-06
0.00110052
8.05262e-06
0.000889635
7.57981e-06
4.70068e-06
0.000882687
6.30878e-06
1.0242e-05
0.00109881
7.06792e-06
7.44526e-06
0.00108443
6.469e-06
4.01504e-06
0.00107079
6.57712e-06
1.09812e-06
0.00106639
6.79745e-06
-1.89721e-06
0.00106662
6.79886e-06
-5.55798e-06
0.00107149
6.57806e-06
-8.61531e-06
0.00108522
6.46386e-06
-3.41834e-06
0.00109967
7.06581e-06
0.000886284
6.39237e-06
2.91045e-06
0.000879207
5.24939e-06
9.0454e-06
0.001097
6.16931e-06
6.66977e-06
0.00108938
5.35923e-06
3.9554e-06
0.00107629
5.58359e-06
1.47613e-06
0.00107158
5.80686e-06
-1.10115e-06
0.00107191
5.8088e-06
-4.10879e-06
0.00107729
5.58531e-06
-6.85273e-06
0.00109054
5.33336e-06
-1.24424e-06
0.00109837
6.15273e-06
0.000884481
5.39519e-06
2.01345e-06
0.000876201
4.43901e-06
8.31297e-06
0.00109505
5.52929e-06
6.17783e-06
0.00109395
4.43882e-06
4.0772e-06
0.00108116
4.78347e-06
1.96006e-06
0.00107627
4.95771e-06
-2.80686e-07
0.00107672
4.9589e-06
-2.74597e-06
0.00108253
4.78233e-06
-5.3806e-06
0.00109562
4.37365e-06
8.367e-08
0.00109728
5.46139e-06
0.000883529
4.68972e-06
1.56666e-06
0.000873329
3.86763e-06
7.94691e-06
0.00109297
5.14881e-06
6.05886e-06
0.00109814
3.76948e-06
4.4774e-06
0.00108556
4.26849e-06
2.58255e-06
0.00108064
4.36301e-06
5.26196e-07
0.00108125
4.3608e-06
-1.48707e-06
0.00108743
4.26036e-06
-4.08053e-06
0.00110049
3.65705e-06
1.00265e-06
0.00109651
4.99616e-06
0.000883136
4.23313e-06
1.69464e-06
0.000870345
3.37212e-06
7.97758e-06
0.00109058
4.93914e-06
6.30323e-06
0.00110214
3.32048e-06
5.17144e-06
0.00108961
3.93985e-06
3.3842e-06
0.00108473
3.90719e-06
1.40081e-06
0.00108554
3.89609e-06
-2.43392e-07
0.00109207
3.9135e-06
-2.78679e-06
0.0011052
3.08052e-06
1.73547e-06
0.0010961
4.6411e-06
0.000883197
3.9505e-06
2.31131e-06
0.000866752
3.04276e-06
8.06987e-06
0.00108821
4.67496e-06
6.69431e-06
0.00110554
2.81936e-06
6.07408e-06
0.00109318
3.6485e-06
4.41309e-06
0.00108845
3.47761e-06
2.49089e-06
0.00108952
3.45432e-06
1.08921e-06
0.0010964
3.61403e-06
-1.55154e-06
0.00110973
2.6004e-06
2.33483e-06
0.00109608
4.37021e-06
0.00088375
3.61733e-06
3.25031e-06
0.000861969
2.87586e-06
8.33433e-06
0.00108628
4.39399e-06
7.34709e-06
0.00110814
2.23579e-06
7.20625e-06
0.00109619
3.3545e-06
5.74098e-06
0.00109184
3.10415e-06
3.89036e-06
0.00109326
3.06824e-06
2.62022e-06
0.0011005
3.3507e-06
-1.15145e-07
0.00111408
2.15535e-06
2.93754e-06
0.00109673
4.19008e-06
0.000884783
3.26632e-06
4.36564e-06
0.000855902
2.67987e-06
9.28119e-06
0.00108441
4.25924e-06
8.6005e-06
0.00111045
1.88415e-06
8.77786e-06
0.00109888
3.15527e-06
7.47188e-06
0.00109503
2.83498e-06
5.63803e-06
0.00109691
2.78131e-06
4.40639e-06
0.00110457
3.17774e-06
1.52869e-06
0.00111853
1.7812e-06
3.67015e-06
0.00109819
4.06351e-06
0.000886353
3.01617e-06
5.7242e-06
0.000848341
2.49596e-06
1.07476e-05
0.00108229
4.21279e-06
1.04496e-05
0.00111235
1.68248e-06
1.09151e-05
0.00110131
3.04549e-06
9.72203e-06
0.00109805
2.64421e-06
7.83767e-06
0.00110053
2.56673e-06
6.5242e-06
0.00110874
3.07838e-06
3.34503e-06
0.00112324
1.48861e-06
4.57063e-06
0.00110039
4.01881e-06
0.000888755
2.7938e-06
7.50313e-06
0.000838898
2.35195e-06
1.2814e-05
0.00107969
4.21099e-06
1.29862e-05
0.00111374
1.5708e-06
1.37361e-05
0.00110344
2.98854e-06
1.26398e-05
0.00110092
2.51442e-06
1.06421e-05
0.00110419
2.40295e-06
9.12625e-06
0.00111311
3.02631e-06
5.52703e-06
0.00112832
1.25839e-06
5.66564e-06
0.0011034
4.00793e-06
0.000892299
2.64018e-06
9.84855e-06
0.000827042
2.26254e-06
1.56414e-05
0.00107639
4.24909e-06
1.63813e-05
0.00111452
1.54993e-06
1.74228e-05
0.00110528
2.98329e-06
1.64155e-05
0.00110366
2.44849e-06
1.42448e-05
0.00110795
2.28964e-06
1.23809e-05
0.0011178
3.01442e-06
8.19521e-06
0.00113392
1.08835e-06
7.01565e-06
0.00110741
4.0126e-06
0.000897336
2.57106e-06
1.29043e-05
0.000812112
2.25355e-06
1.94467e-05
0.00107213
4.35153e-06
2.08798e-05
0.0011146
1.64678e-06
2.22236e-05
0.00110679
3.04417e-06
2.1298e-05
0.00110631
2.45981e-06
1.88774e-05
0.0011119
2.23796e-06
1.65039e-05
0.00112298
3.04782e-06
1.15275e-05
0.00114026
9.83681e-07
8.72375e-06
0.00111272
4.03116e-06
0.000904265
2.59921e-06
1.68255e-05
0.000793299
2.38153e-06
2.45297e-05
0.00106654
4.54977e-06
2.67758e-05
0.00111387
1.88788e-06
2.84499e-05
0.00110797
3.19601e-06
2.76031e-05
0.0011089
2.57257e-06
2.48412e-05
0.00111615
2.26391e-06
2.17651e-05
0.00112883
3.145e-06
1.57419e-05
0.00114762
9.6311e-07
1.09236e-05
0.00111979
4.0805e-06
0.000913609
2.73443e-06
2.17603e-05
0.00076965
2.72385e-06
3.12398e-05
0.00105909
4.91013e-06
3.44427e-05
0.00111222
2.31599e-06
3.64894e-05
0.00110879
3.48072e-06
3.57259e-05
0.00111148
2.82503e-06
3.25309e-05
0.00112083
2.40514e-06
2.8519e-05
0.0011356
3.32975e-06
2.11144e-05
0.00115638
1.0528e-06
1.37765e-05
0.00112919
4.18872e-06
0.000926061
3.00195e-06
2.78586e-05
0.000740105
3.40392e-06
3.99756e-05
0.00104904
5.52689e-06
4.43563e-05
0.00110951
3.01621e-06
4.68306e-05
0.00110925
3.96638e-06
4.61684e-05
0.00111409
3.272e-06
4.24497e-05
0.00112611
2.71355e-06
3.72399e-05
0.00114359
3.64718e-06
2.80211e-05
0.00116702
1.29347e-06
1.75114e-05
0.00114165
4.39818e-06
0.000942574
3.44098e-06
3.5218e-05
0.000703592
4.58064e-06
5.11747e-05
0.00103538
6.52114e-06
5.70604e-05
0.00110555
4.08918e-06
6.00622e-05
0.00110933
4.74698e-06
5.95658e-05
0.00111677
3.99237e-06
5.52593e-05
0.00113212
3.25985e-06
4.85597e-05
0.00115315
4.15942e-06
3.69886e-05
0.00118016
1.7452e-06
2.24322e-05
0.00115816
4.77088e-06
0.000964442
4.11402e-06
4.38125e-05
0.000659202
6.45398e-06
6.5278e-05
0.00101672
8.08199e-06
7.31768e-05
0.00109998
5.654e-06
7.68887e-05
0.00110897
5.94543e-06
7.67128e-05
0.00111952
5.09465e-06
7.18368e-05
0.00113898
4.1391e-06
6.33524e-05
0.00116469
4.94707e-06
4.87743e-05
0.00119657
2.48763e-06
2.90042e-05
0.00118004
5.38714e-06
0.000993475
5.11594e-06
5.33973e-05
0.000606445
9.21906e-06
8.25047e-05
0.000991374
1.04178e-05
9.33511e-05
0.0010922
7.88225e-06
9.81282e-05
0.00110803
7.72797e-06
9.85938e-05
0.00112223
6.72558e-06
9.33493e-05
0.00114672
5.4852e-06
8.28699e-05
0.00117856
6.12075e-06
6.44986e-05
0.00121723
3.62624e-06
3.7922e-05
0.00120912
6.35241e-06
0.00103227
6.57274e-06
6.34131e-05
0.000545503
1.29897e-05
0.000102743
0.000957338
1.37717e-05
0.000118145
0.00108109
1.09664e-05
0.000124707
0.00110614
1.02958e-05
0.000126425
0.00112464
9.06634e-06
0.000121363
0.00115512
7.46285e-06
0.00010893
0.00119505
7.81978e-06
8.59076e-05
0.00124332
5.29169e-06
5.032e-05
0.00124796
7.80183e-06
0.0010847
8.63906e-06
7.29541e-05
0.000477272
1.7583e-05
0.000125125
0.000912627
1.82403e-05
0.000147755
0.00106478
1.51105e-05
0.000157575
0.00110251
1.38873e-05
0.000161685
0.00112617
1.23245e-05
0.000157984
0.0011636
1.02429e-05
0.000144227
0.00121405
1.01742e-05
0.000115875
0.00127603
7.6043e-06
6.82705e-05
0.00130015
9.86751e-06
0.00115701
1.14735e-05
8.06625e-05
0.000403252
2.21593e-05
0.000147926
0.000855297
2.36604e-05
0.000181738
0.00104043
2.04952e-05
0.000197563
0.00109556
1.87319e-05
0.00020612