/*--------------------------------*- C++ -*----------------------------------*\
| =========                 |                                                 |
| \\      /  F ield         | OpenFOAM: The Open Source CFD Toolbox           |
|  \\    /   O peration     | Version:  4.1                                   |
|   \\  /    A nd           | Web:      www.OpenFOAM.org                      |
|    \\/     M anipulation  |                                                 |
\*---------------------------------------------------------------------------*/
FoamFile
{
    version     2.0;
    format      ascii;
    class       volVectorField;
    location    "100";
    object      U;
}
// * * * * * * * * * * * * * * * * * * * * * * * * * * * * * * * * * * * * * //

dimensions      [0 1 -1 0 0 0 0];

internalField   nonuniform List<vector> 
12000
(
(0.0919458 -0.00966624 0.00966155)
(0.0965507 -0.00180122 0.010589)
(0.0959531 -0.00135155 0.0110035)
(0.0955619 -0.000557594 0.0110246)
(0.0954648 -0.000150336 0.0110545)
(0.095465 0.000133124 0.0110544)
(0.0955626 0.000541613 0.0110243)
(0.0959543 0.00133709 0.011003)
(0.0965512 0.00178725 0.0105875)
(0.0919508 0.00965768 0.00966222)
(0.0862259 -0.00381855 0.00380718)
(0.095166 -0.00255306 0.0053271)
(0.093765 -0.00197645 0.00576123)
(0.0926884 -0.00088716 0.00573539)
(0.0923523 -0.000279311 0.00576997)
(0.0923538 0.000234694 0.00576974)
(0.0926925 0.000846087 0.00573481)
(0.0937706 0.00194192 0.00576106)
(0.0951684 0.00252144 0.00532573)
(0.0862456 0.00380376 0.00381269)
(0.0822197 0.000805285 -0.000823939)
(0.0931472 -0.0025568 0.00017116)
(0.0918654 -0.00164668 0.000453403)
(0.090624 -0.000795184 0.000452782)
(0.0901435 -0.000300147 0.000491318)
(0.0901476 0.000224094 0.000490907)
(0.090636 0.000725161 0.000451657)
(0.0918814 0.0015871 0.000452408)
(0.09316 0.00250349 0.000169219)
(0.0822684 -0.000833075 -0.000817571)
(0.0794896 0.00272927 -0.00275733)
(0.0907728 -0.00249699 -0.00247986)
(0.0900775 -0.0011631 -0.00238622)
(0.0890441 -0.00066572 -0.00230398)
(0.0885362 -0.000300141 -0.00225194)
(0.0885443 0.00018452 -0.0022526)
(0.0890679 0.00055965 -0.00230585)
(0.0901096 0.00107089 -0.00238855)
(0.0907983 0.00241916 -0.00248105)
(0.0795873 -0.00277536 -0.00274989)
(0.0780794 0.00322425 -0.00326458)
(0.0890889 -0.00241335 -0.00352915)
(0.0890163 -0.00077116 -0.00365062)
(0.0882095 -0.000620902 -0.00347235)
(0.0876938 -0.000310948 -0.00340823)
(0.0877073 0.000144567 -0.00340912)
(0.0882494 0.000468939 -0.00347433)
(0.0890712 0.000636632 -0.00365375)
(0.0891297 0.00230644 -0.00353096)
(0.0782505 -0.0032941 -0.00325708)
(0.0773141 0.00312556 -0.00318176)
(0.0880223 -0.00229327 -0.00379076)
(0.0885354 -0.000470706 -0.00412357)
(0.0878555 -0.0006251 -0.00386674)
(0.0873207 -0.000321701 -0.00380012)
(0.0873415 8.97178e-05 -0.00380109)
(0.0879169 0.000414415 -0.00386779)
(0.0886227 0.000282501 -0.00412445)
(0.0880885 0.00215062 -0.00378881)
(0.0775877 -0.00322526 -0.00317491)
(0.0766446 0.00280654 -0.00288359)
(0.087225 -0.00216237 -0.00368377)
(0.0882662 -0.000250602 -0.00420639)
(0.0876493 -0.000649698 -0.00388583)
(0.0871013 -0.000328585 -0.00383349)
(0.0871318 1.15212e-05 -0.00383467)
(0.0877393 0.000363734 -0.00388479)
(0.0883952 -4.11272e-06 -0.00420314)
(0.0873117 0.00197266 -0.00367929)
(0.0770592 -0.00294368 -0.00287698)
(0.0759007 0.00242938 -0.00253389)
(0.0865392 -0.00204307 -0.00342404)
(0.0880438 -0.000110733 -0.00409877)
(0.0874352 -0.000696042 -0.00373372)
(0.0869132 -0.000340348 -0.0036991)
(0.0869573 -8.74257e-05 -0.00370036)
(0.087564 0.000313399 -0.00372901)
(0.0882307 -0.000229221 -0.00409439)
(0.0866539 0.00179026 -0.00341993)
(0.076505 -0.00261375 -0.00252611)
(0.0751008 0.00205899 -0.00219933)
(0.0859435 -0.0019431 -0.00310959)
(0.0878606 -4.52967e-05 -0.00391078)
(0.0872184 -0.000768084 -0.00351659)
(0.0867491 -0.000365609 -0.00349666)
(0.0868119 -0.000206686 -0.00349874)
(0.0873963 0.000260458 -0.00350831)
(0.0881195 -0.000405984 -0.00390214)
(0.0860876 0.0016022 -0.0031053)
(0.0759655 -0.00230544 -0.00219064)
(0.0742697 0.00171864 -0.00190592)
(0.0854337 -0.00187438 -0.00277879)
(0.0876901 -4.99872e-05 -0.00369688)
(0.0870132 -0.00085582 -0.0032798)
(0.0866265 -0.000407398 -0.00326418)
(0.0867153 -0.000351447 -0.00326688)
(0.087271 0.000186866 -0.00326076)
(0.0880373 -0.00055349 -0.00368501)
(0.0855868 0.00140547 -0.00279089)
(0.0754897 -0.00204529 -0.00189522)
(0.0734111 0.00141217 -0.0016594)
(0.0849376 -0.00181716 -0.00246134)
(0.0876308 -0.000115296 -0.00339611)
(0.0868377 -0.00097981 -0.0030222)
(0.0864981 -0.000482271 -0.0030297)
(0.0866248 -0.000522364 -0.00303156)
(0.0871805 8.37845e-05 -0.00300012)
(0.0880272 -0.000699214 -0.00343635)
(0.0851452 0.00119062 -0.00249958)
(0.0750933 -0.00183331 -0.0016379)
(0.072512 0.00112463 -0.00144841)
(0.08441 -0.00177952 -0.00220708)
(0.0873899 -0.00022711 -0.00315443)
(0.0866242 -0.00114702 -0.00278399)
(0.0863407 -0.000606692 -0.00282021)
(0.0865168 -0.000724509 -0.00282359)
(0.0870612 -5.63255e-05 -0.00276732)
(0.0879864 -0.000859364 -0.00321856)
(0.0847676 0.000959898 -0.00225604)
(0.0747758 -0.0016606 -0.00141088)
(0.0715383 0.000839959 -0.00126452)
(0.0838936 -0.00179754 -0.00200538)
(0.0871134 -0.000391308 -0.00295932)
(0.0863671 -0.00134983 -0.00258984)
(0.0861805 -0.000784471 -0.00263795)
(0.0864186 -0.000971732 -0.00264472)
(0.0869449 -0.000246064 -0.00257098)
(0.0879744 -0.00103987 -0.00302983)
(0.0844912 0.000721456 -0.00205855)
(0.0745307 -0.00152008 -0.00121004)
(0.0704456 0.000551971 -0.0011076)
(0.0833772 -0.0018779 -0.00183743)
(0.0867984 -0.000622953 -0.00278934)
(0.0860905 -0.00160939 -0.00242915)
(0.0860156 -0.0010301 -0.00248024)
(0.086333 -0.00127715 -0.00249059)
(0.0868529 -0.000495781 -0.00240447)
(0.088002 -0.00125263 -0.00286252)
(0.0843372 0.000467625 -0.00189076)
(0.0743746 -0.00141287 -0.00103304)
(0.0691871 0.000251068 -0.000974924)
(0.0828483 -0.00203363 -0.00168862)
(0.0864341 -0.000939354 -0.00263538)
(0.0857923 -0.00194741 -0.00229326)
(0.0858478 -0.00136589 -0.00234096)
(0.0862706 -0.00165821 -0.00235421)
(0.0868007 -0.000823228 -0.00226038)
(0.0880889 -0.00151334 -0.00270944)
(0.0843129 0.000187102 -0.00174184)
(0.0743323 -0.00134058 -0.000879351)
(0.067702 -7.65487e-05 -0.000860892)
(0.0822798 -0.00228328 -0.00155282)
(0.0860184 -0.00136388 -0.00248893)
(0.0854749 -0.002389 -0.00217431)
(0.0856784 -0.0018182 -0.00221401)
(0.0862343 -0.00213829 -0.00223129)
(0.0868077 -0.00125049 -0.00213082)
(0.0882557 -0.00184205 -0.00256338)
(0.0844304 -0.000134538 -0.00160544)
(0.074434 -0.00130508 -0.000745474)
(0.0659086 -0.000446398 -0.00075849)
(0.081636 -0.00265128 -0.00142381)
(0.0855299 -0.00192679 -0.00234665)
(0.0851298 -0.00296523 -0.00206605)
(0.0855023 -0.00241961 -0.0020933)
(0.0862328 -0.00274875 -0.00211435)
(0.0868815 -0.001807 -0.00201076)
(0.0885196 -0.00226477 -0.00242093)
(0.084711 -0.000516696 -0.00147916)
(0.0747143 -0.0013099 -0.000624743)
(0.0636999 -0.00087342 -0.000659351)
(0.080856 -0.00316442 -0.0012943)
(0.0849608 -0.00266811 -0.00219554)
(0.0847445 -0.00371882 -0.00196145)
(0.0853099 -0.00321204 -0.00197342)
(0.0862603 -0.00353016 -0.00199873)
(0.0870411 -0.00253096 -0.00189408)
(0.088904 -0.00281524 -0.00228029)
(0.0851879 -0.000983403 -0.00135995)
(0.0752151 -0.00136071 -0.000509542)
(0.0609377 -0.00137202 -0.000551312)
(0.0798523 -0.00385623 -0.00115556)
(0.0842511 -0.00363858 -0.00203115)
(0.0842977 -0.0047027 -0.00185395)
(0.0850894 -0.00424946 -0.00184898)
(0.0863172 -0.00453417 -0.00187935)
(0.0872965 -0.00347004 -0.0017762)
(0.0894378 -0.00353695 -0.00213627)
(0.0859043 -0.00156649 -0.00124346)
(0.0759892 -0.00146722 -0.000392507)
(0.0574484 -0.00195173 -0.000418735)
(0.0784953 -0.00476632 -0.000993028)
(0.0833652 -0.00490243 -0.00184548)
(0.0837595 -0.00598022 -0.0017359)
(0.0848198 -0.00559796 -0.00171411)
(0.0863952 -0.00582841 -0.00175017)
(0.0876635 -0.00468786 -0.00165104)
(0.090134 -0.004485 -0.00197944)
(0.0869178 -0.00230683 -0.00112244)
(0.0771075 -0.00164304 -0.000264797)
(0.0530262 -0.00260839 -0.00024254)
(0.0765804 -0.00592797 -0.000786064)
(0.0822373 -0.00653486 -0.00162241)
(0.0830875 -0.0076321 -0.0015951)
(0.0844694 -0.00733865 -0.00155992)
(0.0864796 -0.00749947 -0.00159957)
(0.0881538 -0.00627131 -0.00150878)
(0.0910289 -0.00573662 -0.00180298)
(0.0882987 -0.00325965 -0.00098877)
(0.0786633 -0.00190983 -0.0001168)
(0.0474461 -0.00331215 -2.26333e-07)
(0.0738169 -0.00735319 -0.000508889)
(0.0807607 -0.0086098 -0.00133902)
(0.0822216 -0.00975549 -0.00141322)
(0.0839896 -0.00957001 -0.00137445)
(0.0865318 -0.00965789 -0.00141482)
(0.0887668 -0.0083372 -0.00133542)
(0.0921641 -0.00740185 -0.0015946)
(0.0901372 -0.00450521 -0.000829235)
(0.0807861 -0.00229899 6.56705e-05)
(0.0405002 -0.00398668 0.000324767)
(0.0698103 -0.00900553 -0.000133353)
(0.07873 -0.011175 -0.000969452)
(0.0810627 -0.0124575 -0.00116568)
(0.0833004 -0.0124122 -0.00114009)
(0.0864852 -0.0124467 -0.00117767)
(0.0894775 -0.0110441 -0.00111289)
(0.0935827 -0.00963921 -0.00133751)
(0.0925484 -0.00616468 -0.000626924)
(0.0836536 -0.00286298 0.000300331)
(0.032071 -0.004479 0.00072589)
(0.0640686 -0.0107451 0.000354825)
(0.0758279 -0.0141919 -0.000478587)
(0.079446 -0.0158354 -0.000815323)
(0.0822792 -0.0160106 -0.000831331)
(0.0862225 -0.0160525 -0.000867078)
(0.0902226 -0.0146124 -0.000817559)
(0.0953176 -0.0126857 -0.00100804)
(0.0956834 -0.00842694 -0.00035587)
(0.0875383 -0.00368036 0.000614263)
(0.022259 -0.00452331 0.00113231)
(0.0560684 -0.0122556 0.000927575)
(0.071455 -0.0174452 0.000155851)
(0.0770207 -0.019922 -0.000312585)
(0.0807015 -0.0205335 -0.000408327)
(0.0855494 -0.0207171 -0.000450817)
(0.0908692 -0.0193497 -0.000417328)
(0.097382 -0.0169052 -0.000574027)
(0.0997514 -0.0116116 1.87209e-05)
(0.092833 -0.00490687 0.00104388)
(0.0115772 -0.00368051 0.00131624)
(0.0454634 -0.0129373 0.00143711)
(0.064803 -0.0203987 0.000942431)
(0.0731628 -0.0245703 0.000425865)
(0.0781869 -0.0261564 0.0001983)
(0.0841363 -0.026772 0.000110896)
(0.0911303 -0.0257037 0.000126305)
(0.0996774 -0.0228729 7.14011e-06)
(0.105001 -0.0162588 0.000547116)
(0.100324 -0.00675967 0.00164419)
(0.00109885 -0.00117188 0.00125243)
(0.0320948 -0.0118634 0.00160968)
(0.0545316 -0.0221236 0.00173415)
(0.0665824 -0.0292376 0.00146663)
(0.073937 -0.0328799 0.00112552)
(0.0814663 -0.0345771 0.000906072)
(0.0905899 -0.0342751 0.000866159)
(0.102037 -0.0315088 0.000785858)
(0.111828 -0.0234455 0.00130446)
(0.111052 -0.00996065 0.0025118)
(-0.00364013 0.00193899 0.00178268)
(0.0180636 -0.00807007 0.00210512)
(0.040141 -0.0212959 0.00270511)
(0.0557099 -0.0329084 0.00279734)
(0.0664909 -0.0404361 0.00244802)
(0.0764059 -0.0445846 0.00204457)
(0.0881285 -0.0459769 0.00187049)
(0.10351 -0.0442361 0.00181002)
(0.119976 -0.0351901 0.00236048)
(0.128857 -0.0150537 0.00374931)
(-0.00660245 1.51169e-05 0.000512158)
(4.14759e-05 -0.00491069 0.00219559)
(0.0193021 -0.017149 0.00418854)
(0.0380041 -0.0326123 0.00500575)
(0.0534762 -0.0460978 0.00466766)
(0.0675219 -0.0557981 0.00387106)
(0.0829647 -0.0616166 0.00332819)
(0.103801 -0.0633343 0.00314074)
(0.129573 -0.0560354 0.00382077)
(0.155915 -0.0282259 0.00561778)
(-0.012298 -0.00427011 -0.00201528)
(-0.0145541 -0.0138089 -0.00215975)
(-0.00415349 -0.0228184 0.000771034)
(0.0119925 -0.0337134 0.00447559)
(0.0294105 -0.048318 0.00644122)
(0.0478216 -0.0642834 0.00652687)
(0.0674756 -0.0796676 0.00571786)
(0.096392 -0.0894969 0.0050872)
(0.12958 -0.100401 0.00542514)
(0.216476 -0.0459317 0.0081403)
(0.0965474 -0.0105933 0.00179356)
(0.101344 -0.0013431 0.00133695)
(0.100927 -0.00121963 0.00144824)
(0.100657 -0.000458929 0.00142269)
(0.100615 -0.000113816 0.00143629)
(0.100615 9.9955e-05 0.00143622)
(0.100657 0.00044618 0.00142238)
(0.100928 0.00120773 0.00144763)
(0.101342 0.00133084 0.00133624)
(0.0965518 0.0105929 0.00179542)
(0.0951545 -0.00533715 0.00253443)
(0.108516 -0.00244256 0.00242466)
(0.10617 -0.00202432 0.0025229)
(0.104981 -0.000791505 0.00246931)
(0.104748 -0.000247327 0.00250305)
(0.104749 0.000204593 0.00250274)
(0.104984 0.000753068 0.00246843)
(0.106175 0.00199402 0.00252202)
(0.108516 0.00241477 0.00241987)
(0.095173 0.00534128 0.00254006)
(0.0931202 -0.000187706 0.0025269)
(0.111956 -0.00290426 0.00287528)
(0.109302 -0.00174472 0.00286756)
(0.107678 -0.000674545 0.00279933)
(0.107329 -0.000283113 0.00284092)
(0.107332 0.000208579 0.00284051)
(0.107688 0.000606933 0.0027982)
(0.109316 0.00168955 0.00286675)
(0.11197 0.00284965 0.00286975)
(0.0931631 0.000179858 0.00253522)
(0.0907216 0.00245435 0.00245378)
(0.112056 -0.00324224 0.00320138)
(0.110086 -0.00125466 0.00311883)
(0.108523 -0.000540239 0.00307271)
(0.108163 -0.000302866 0.00312153)
(0.10817 0.000190002 0.00312109)
(0.108544 0.000437583 0.00307149)
(0.11011 0.00116616 0.00311752)
(0.112088 0.00316067 0.00319471)
(0.0908136 -0.00248606 0.00246251)
(0.0890029 0.00349145 0.00235315)
(0.111062 -0.00343414 0.00337859)
(0.110024 -0.000828524 0.00325924)
(0.108641 -0.000529273 0.00326566)
(0.108275 -0.000333477 0.00332174)
(0.108288 0.000172877 0.00332145)
(0.108676 0.000383771 0.00326459)
(0.110062 0.000696825 0.00325804)
(0.11112 0.00332941 0.00337776)
(0.0891725 -0.00355668 0.00236259)
(0.0878876 0.00373758 0.00221095)
(0.110111 -0.00349543 0.00342183)
(0.10991 -0.000482402 0.00325714)
(0.108674 -0.000585769 0.00332437)
(0.108272 -0.00035352 0.00337118)
(0.10829 0.000133253 0.0033708)
(0.108728 0.000387528 0.0033237)
(0.10997 0.00029759 0.00325507)
(0.110197 0.00335639 0.00342334)
(0.0881704 -0.00383756 0.00222278)
(0.0870239 0.00361023 0.00204985)
(0.109236 -0.00349566 0.00339645)
(0.109802 -0.000223645 0.00318173)
(0.108687 -0.000665935 0.00329739)
(0.108247 -0.000355265 0.00332508)
(0.108274 5.87118e-05 0.00332463)
(0.108766 0.000399874 0.00329782)
(0.109896 -3.06821e-05 0.00317814)
(0.109383 0.00331354 0.00340232)
(0.0874479 -0.00375177 0.00206623)
(0.0862482 0.00332399 0.00189005)
(0.108379 -0.00345627 0.00332504)
(0.109635 -5.91806e-05 0.00307929)
(0.108652 -0.000764851 0.00323913)
(0.108178 -0.000347952 0.0032389)
(0.108215 -4.72854e-05 0.00323819)
(0.108764 0.000410727 0.0032409)
(0.109778 -0.000285192 0.00307588)
(0.108612 0.00321851 0.00333858)
(0.0868631 -0.00351623 0.00191161)
(0.0855329 0.00297515 0.00173715)
(0.107545 -0.00338736 0.00321224)
(0.109416 1.37598e-05 0.00295274)
(0.108571 -0.000881771 0.00316527)
(0.10807 -0.000345752 0.00313219)
(0.108119 -0.000177649 0.00313051)
(0.108726 0.000413133 0.00317596)
(0.109629 -0.000475249 0.00294678)
(0.10791 0.00306405 0.00322586)
(0.0863953 -0.00323009 0.00176104)
(0.0848669 0.00259911 0.00159667)
(0.106756 -0.00326453 0.00303429)
(0.109193 9.32422e-06 0.00286489)
(0.108469 -0.00101295 0.00308222)
(0.107944 -0.00036188 0.0029893)
(0.108009 -0.000326947 0.00298777)
(0.108667 0.000393902 0.00309024)
(0.109517 -0.000631183 0.00282553)
(0.107345 0.00286983 0.00308181)
(0.0860254 -0.00295154 0.00161502)
(0.0841655 0.0022254 0.00145226)
(0.106129 -0.00309917 0.0028041)
(0.108867 -5.73085e-05 0.00266578)
(0.10835 -0.00115095 0.0029657)
(0.107856 -0.00040339 0.00282755)
(0.107938 -0.00049764 0.00282329)
(0.108621 0.000347347 0.00295987)
(0.109407 -0.000768754 0.00266411)
(0.106926 0.00264787 0.00292669)
(0.0857515 -0.0027055 0.00147575)
(0.0833652 0.00190126 0.00130392)
(0.105636 -0.00303191 0.00263877)
(0.108709 -0.000139204 0.00247841)
(0.108266 -0.00131373 0.00283745)
(0.107817 -0.000474524 0.00269189)
(0.107925 -0.00070199 0.00268036)
(0.108646 0.000272701 0.00283359)
(0.109403 -0.000920845 0.0025093)
(0.106616 0.00243782 0.00278252)
(0.0855786 -0.00251257 0.00134224)
(0.0824915 0.00160933 0.00116941)
(0.105181 -0.0030356 0.00251257)
(0.10856 -0.000281115 0.00237386)
(0.108211 -0.00152277 0.00273424)
(0.107797 -0.000591199 0.00257804)
(0.107939 -0.000945037 0.00255878)
(0.108718 0.00015871 0.0027347)
(0.109449 -0.00108294 0.00238871)
(0.106369 0.00222423 0.00265955)
(0.0855305 -0.00236867 0.00122258)
(0.0815139 0.00132545 0.00104628)
(0.10471 -0.00308334 0.00239065)
(0.108397 -0.000489675 0.00227662)
(0.108149 -0.00178068 0.00264443)
(0.107785 -0.000770563 0.00247131)
(0.107975 -0.00123446 0.00244567)
(0.108823 -9.94088e-06 0.00264547)
(0.109541 -0.00126883 0.00227659)
(0.106168 0.00198412 0.00253454)
(0.085634 -0.00226125 0.00112212)
(0.0803938 0.00102892 0.000934901)
(0.104194 -0.00317882 0.00226499)
(0.108203 -0.000774091 0.00218518)
(0.108074 -0.00209977 0.00255834)
(0.107777 -0.0010298 0.00237417)
(0.108029 -0.00158385 0.0023393)
(0.108962 -0.000250563 0.00256145)
(0.109682 -0.00149413 0.00217418)
(0.106038 0.00170276 0.0024042)
(0.085887 -0.00217989 0.00103927)
(0.0790739 0.000706544 0.000837438)
(0.103617 -0.00334038 0.00214102)
(0.107957 -0.00115208 0.00210342)
(0.107975 -0.00249882 0.00247853)
(0.107769 -0.00139153 0.0022892)
(0.108104 -0.00201189 0.00224463)
(0.109138 -0.000583796 0.0024803)
(0.109884 -0.00177509 0.00208235)
(0.106035 0.00136955 0.00227497)
(0.0862792 -0.00211974 0.000975526)
(0.0774905 0.000344546 0.000758324)
(0.102948 -0.00359011 0.00202463)
(0.107645 -0.00164949 0.00204277)
(0.107846 -0.00300479 0.00240786)
(0.107761 -0.00188403 0.0022184)
(0.108204 -0.00254329 0.00216129)
(0.109369 -0.00103358 0.00240738)
(0.110164 -0.00213401 0.00200206)
(0.106194 0.000975459 0.00215616)
(0.0868415 -0.00208585 0.000932579)
(0.0755576 -7.01762e-05 0.000704214)
(0.102157 -0.00395353 0.0019239)
(0.107241 -0.00229895 0.00199755)
(0.107678 -0.00365007 0.00235107)
(0.107755 -0.00254264 0.00216685)
(0.108342 -0.00321068 0.00209307)
(0.109667 -0.00163056 0.00234465)
(0.110549 -0.00259773 0.00193855)
(0.106553 0.000504747 0.00205523)
(0.0876217 -0.00208685 0.000913044)
(0.0731781 -0.00054918 0.000685437)
(0.101187 -0.00446802 0.00185416)
(0.106757 -0.00314018 0.00197296)
(0.107468 -0.00447884 0.00231426)
(0.107754 -0.00341146 0.00213995)
(0.108529 -0.0040579 0.00204766)
(0.110059 -0.00241568 0.00229688)
(0.111071 -0.00320059 0.0018994)
(0.107161 -6.53417e-05 0.00197937)
(0.088684 -0.00213133 0.000921935)
(0.0702453 -0.00110533 0.000719129)
(0.099955 -0.00516343 0.00182812)
(0.106166 -0.00422938 0.00198647)
(0.107208 -0.0055462 0.00230665)
(0.10776 -0.00454625 0.00214506)
(0.108781 -0.00514081 0.00203336)
(0.11057 -0.00344431 0.00227367)
(0.111792 -0.00399005 0.0018895)
(0.108082 -0.000768827 0.00193576)
(0.0901153 -0.00223212 0.000967011)
(0.0666273 -0.00174527 0.000828947)
(0.0983608 -0.00607034 0.00186544)
(0.105442 -0.00562882 0.00204972)
(0.106891 -0.00691868 0.00234122)
(0.107774 -0.00601666 0.00219421)
(0.109111 -0.0065317 0.00205946)
(0.111231 -0.00478951 0.00228368)
(0.112774 -0.00503129 0.00191765)
(0.109405 -0.00165389 0.00193427)
(0.0920323 -0.00240613 0.00106003)
(0.0621822 -0.00246182 0.0010448)
(0.0962582 -0.00721806 0.00199766)
(0.104546 -0.00740293 0.0021759)
(0.106504 -0.00867713 0.00243469)
(0.10779 -0.00790868 0.00230282)
(0.109532 -0.00832623 0.0021407)
(0.112081 -0.00654894 0.00233816)
(0.11409 -0.00641667 0.00199789)
(0.111246 -0.00278941 0.00199048)
(0.0945948 -0.0026816 0.00121795)
(0.0567648 -0.00322454 0.00139423)
(0.0934402 -0.0086092 0.0022579)
(0.103414 -0.00961694 0.00240324)
(0.106025 -0.0109195 0.00261186)
(0.107791 -0.0103292 0.00249399)
(0.11005 -0.0106532 0.00230174)
(0.113164 -0.00885973 0.00246007)
(0.115834 -0.00828244 0.00214948)
(0.113769 -0.00428037 0.00212664)
(0.0980266 -0.00310116 0.00146679)
(0.050228 -0.0039552 0.00188367)
(0.0896368 -0.010208 0.00267766)
(0.101902 -0.0123032 0.00276383)
(0.105403 -0.0137534 0.00290516)
(0.107733 -0.0134108 0.00279559)
(0.110645 -0.0136841 0.00257502)
(0.114509 -0.0119194 0.00268154)
(0.11812 -0.0108373 0.00240206)
(0.117199 -0.00629066 0.00237603)
(0.102661 -0.00373537 0.00184329)
(0.0424742 -0.00450793 0.00245534)
(0.0844466 -0.0118818 0.00325024)
(0.0997489 -0.0154241 0.00330705)
(0.104534 -0.0172883 0.0033714)
(0.107543 -0.0173196 0.00325306)
(0.111259 -0.0176486 0.00300157)
(0.116125 -0.0160114 0.00304335)
(0.121073 -0.0144096 0.00279578)
(0.121857 -0.00910379 0.00278616)
(0.108982 -0.00472181 0.00240406)
(0.0335206 -0.00461708 0.00292538)
(0.0774258 -0.0133368 0.00389798)
(0.0964819 -0.0187812 0.00406313)
(0.103175 -0.0215919 0.00409032)
(0.107064 -0.022269 0.00393287)
(0.111744 -0.0228594 0.00363488)
(0.117938 -0.0215533 0.00359969)
(0.124788 -0.0195292 0.00338361)
(0.128176 -0.0132048 0.00342381)
(0.117915 -0.00624777 0.00322681)
(0.0236371 -0.00392129 0.00297854)
(0.0679757 -0.0140613 0.00437436)
(0.0912899 -0.0219234 0.00502097)
(0.100853 -0.0265802 0.00517293)
(0.10606 -0.0284791 0.00494272)
(0.111887 -0.0297233 0.00454245)
(0.119791 -0.0291355 0.00440488)
(0.12933 -0.0270698 0.00422779)
(0.136796 -0.0195702 0.004383)
(0.130674 -0.00900772 0.00444158)
(0.0144234 -0.0020216 0.00298284)
(0.0563402 -0.0133615 0.00481579)
(0.0832814 -0.0242019 0.0062056)
(0.0966904 -0.0319693 0.00668747)
(0.103979 -0.036139 0.00637684)
(0.111179 -0.038754 0.00577915)
(0.1211 -0.0395852 0.00547558)
(0.134299 -0.0384071 0.00533656)
(0.148009 -0.0301356 0.00573355)
(0.151475 -0.0133821 0.00620113)
(0.00824768 -0.000585001 0.00294105)
(0.0429166 -0.0111214 0.00550451)
(0.0715929 -0.0244049 0.00770112)
(0.0894722 -0.0364526 0.0087268)
(0.100183 -0.0447767 0.00834224)
(0.109362 -0.0504123 0.0074003)
(0.121497 -0.0539626 0.00680232)
(0.139459 -0.0555701 0.00666316)
(0.162291 -0.0488239 0.00757107)
(0.182713 -0.0253572 0.00879189)
(0.00515576 -0.00263963 8.6868e-05)
(0.0301127 -0.0112223 0.00437478)
(0.0570472 -0.024673 0.00779468)
(0.0776994 -0.0391875 0.00967055)
(0.0921757 -0.0521859 0.00971642)
(0.104328 -0.0632466 0.0086357)
(0.117975 -0.0732019 0.00764753)
(0.142031 -0.0805698 0.0074001)
(0.171265 -0.0892545 0.0089128)
(0.248786 -0.0412526 0.0121631)
(0.0959506 -0.0110079 0.00134372)
(0.100928 -0.00145412 0.00121349)
(0.100636 -0.0011633 0.00115755)
(0.100398 -0.000457351 0.00117098)
(0.100358 -0.000113104 0.00117657)
(0.100358 0.000100025 0.00117656)
(0.100398 0.000445401 0.00117077)
(0.100636 0.00115205 0.00115714)
(0.100925 0.00144133 0.00121333)
(0.0959527 0.0110102 0.00134456)
(0.093755 -0.00577133 0.0019564)
(0.106172 -0.00254077 0.00200533)
(0.10368 -0.00193906 0.0019205)
(0.102513 -0.000787183 0.00196422)
(0.102276 -0.000240943 0.00197512)
(0.102277 0.000199446 0.00197502)
(0.102517 0.000749855 0.00196393)
(0.103686 0.00191025 0.00192009)
(0.106172 0.00251418 0.00200389)
(0.0937719 0.00578045 0.00195915)
(0.0918398 -0.000469548 0.00161268)
(0.109303 -0.00289644 0.00171151)
(0.106058 -0.00163879 0.00160594)
(0.104421 -0.000649542 0.00164254)
(0.104071 -0.000270325 0.00165189)
(0.104075 0.00019728 0.00165175)
(0.104433 0.000583446 0.00164248)
(0.106075 0.00158574 0.00160607)
(0.109316 0.00284113 0.00171112)
(0.0918797 0.000465644 0.00161781)
(0.0900276 0.00236232 0.00111169)
(0.110085 -0.0031598 0.00120468)
(0.107079 -0.00113172 0.0010821)
(0.105483 -0.000501156 0.0011009)
(0.105132 -0.000289497 0.00111113)
(0.10514 0.000178037 0.00111117)
(0.105505 0.000400422 0.00110102)
(0.107107 0.00104545 0.00108202)
(0.11011 0.00307752 0.00120435)
(0.0901188 -0.00239305 0.00111809)
(0.0889341 0.00361491 0.000697358)
(0.11002 -0.00331262 0.000757852)
(0.10758 -0.00069028 0.000619563)
(0.106124 -0.000496115 0.000634831)
(0.105768 -0.00032532 0.000651799)
(0.105782 0.000165549 0.000652032)
(0.106162 0.000352412 0.000635155)
(0.107622 0.000560532 0.000619217)
(0.110061 0.00320478 0.000756718)
(0.0891075 -0.00368025 0.000705092)
(0.0884064 0.0040757 0.000368099)
(0.109904 -0.00333005 0.000384736)
(0.108113 -0.00030876 0.000211587)
(0.106738 -0.000562783 0.000232141)
(0.106334 -0.000348467 0.000253164)
(0.106353 0.000128159 0.000253611)
(0.106795 0.000365929 0.000232884)
(0.108178 0.000124351 0.000211364)
(0.109972 0.00319137 0.00038389)
(0.0886934 -0.00417818 0.000377897)
(0.0880835 0.00413653 0.000110102)
(0.109788 -0.00327271 9.25947e-05)
(0.108682 6.13601e-06 -0.000137436)
(0.107353 -0.000648404 -0.000107451)
(0.106895 -0.000345489 -9.22134e-05)
(0.106923 4.82724e-05 -9.16378e-05)
(0.107436 0.000384373 -0.000106077)
(0.108777 -0.000259854 -0.000139141)
(0.109897 0.00309598 8.95214e-05)
(0.0885167 -0.00427993 0.000125115)
(0.0877761 0.00400621 -7.88819e-05)
(0.109625 -0.0031973 -0.000117973)
(0.109189 0.000236459 -0.00041124)
(0.107896 -0.00075078 -0.000367935)
(0.107408 -0.000327975 -0.000364104)
(0.107447 -6.79528e-05 -0.000363556)
(0.108013 0.000400688 -0.000366045)
(0.109327 -0.00057935 -0.0004154)
(0.109792 0.00297049 -0.000124964)
(0.0884025 -0.00419365 -5.73008e-05)
(0.0874831 0.00378767 -0.000209281)
(0.109409 -0.00310835 -0.000249733)
(0.109623 0.000381397 -0.000612413)
(0.108357 -0.000874404 -0.000550242)
(0.107862 -0.000312213 -0.000560342)
(0.107914 -0.000210532 -0.000559945)
(0.108517 0.000413167 -0.000548261)
(0.10982 -0.000840674 -0.00061987)
(0.109688 0.00282284 -0.000265548)
(0.0883269 -0.00402249 -0.000180195)
(0.0871707 0.00353071 -0.000291347)
(0.109195 -0.0030515 -0.000322935)
(0.110026 0.000455595 -0.000755903)
(0.10877 -0.00102007 -0.000670136)
(0.108277 -0.000310586 -0.000696378)
(0.108347 -0.000375756 -0.000696706)
(0.108984 0.000414289 -0.000666474)
(0.110289 -0.00106477 -0.000773242)
(0.10962 0.00265274 -0.000356949)
(0.0883043 -0.00382385 -0.000254612)
(0.086901 0.00320167 -0.000335628)
(0.108907 -0.00294637 -0.00035991)
(0.110387 0.000461643 -0.000850108)
(0.109148 -0.00116985 -0.000744982)
(0.108664 -0.00032782 -0.000794449)
(0.108757 -0.000566942 -0.000795804)
(0.109427 0.000389398 -0.0007412)
(0.110748 -0.00126232 -0.000884352)
(0.109598 0.00247347 -0.000414563)
(0.0883345 -0.0036229 -0.000305571)
(0.0864641 0.0028994 -0.000360899)
(0.108721 -0.00286655 -0.000398449)
(0.110693 0.000422164 -0.000936716)
(0.109477 -0.00133261 -0.000796849)
(0.10902 -0.000373609 -0.000867266)
(0.109143 -0.000788013 -0.000870315)
(0.109849 0.000326581 -0.000793766)
(0.111191 -0.00145011 -0.000972049)
(0.109619 0.00225963 -0.00044919)
(0.0884275 -0.00342806 -0.000347485)
(0.0859239 0.0026202 -0.000376788)
(0.108538 -0.00286098 -0.000417881)
(0.110941 0.000319424 -0.000995511)
(0.109762 -0.00153637 -0.000833023)
(0.109349 -0.000467201 -0.000918907)
(0.109512 -0.00104255 -0.000924497)
(0.110256 0.000221369 -0.000828448)
(0.11163 -0.00164544 -0.00103768)
(0.109734 0.0020319 -0.00047332)
(0.0885435 -0.00327083 -0.000376126)
(0.0852498 0.00234225 -0.000384799)
(0.108342 -0.002901 -0.000420982)
(0.111151 0.000150179 -0.0010325)
(0.110017 -0.00178639 -0.000854009)
(0.109659 -0.00062333 -0.00095435)
(0.109874 -0.00133886 -0.000963193)
(0.110665 6.35749e-05 -0.000848733)
(0.112085 -0.00185663 -0.00108615)
(0.109914 0.0017953 -0.000480405)
(0.0887367 -0.00314405 -0.000392459)
(0.0844105 0.00204703 -0.00038293)
(0.10811 -0.00299395 -0.000410837)
(0.111317 -9.58076e-05 -0.00105244)
(0.110245 -0.00209309 -0.000863067)
(0.109952 -0.000857621 -0.000975744)
(0.110236 -0.00169008 -0.000989001)
(0.111089 -0.000162174 -0.000857443)
(0.112571 -0.00209996 -0.00112082)
(0.110172 0.00153293 -0.000477859)
(0.0890258 -0.00304304 -0.000394137)
(0.0833599 0.00172034 -0.000370126)
(0.10782 -0.00315375 -0.000388707)
(0.111427 -0.000435271 -0.00105507)
(0.110443 -0.00247381 -0.000860668)
(0.110233 -0.00119037 -0.000983445)
(0.110606 -0.00211412 -0.00100318)
(0.11154 -0.000474493 -0.00085549)
(0.113101 -0.00239106 -0.00114307)
(0.110518 0.0012338 -0.000469045)
(0.0894475 -0.00296526 -0.000379456)
(0.0820385 0.00134988 -0.000344169)
(0.10745 -0.00339828 -0.000352746)
(0.111473 -0.000891686 -0.00103851)
(0.110611 -0.00295286 -0.000846036)
(0.110502 -0.001648 -0.000976634)
(0.110989 -0.00263403 -0.00100501)
(0.11203 -0.000896298 -0.000843804)
(0.113694 -0.00274941 -0.00115269)
(0.110977 0.000880354 -0.000455741)
(0.0900376 -0.00291202 -0.000349836)
(0.0803731 0.0009233 -0.000299015)
(0.106968 -0.0037501 -0.000299432)
(0.111443 -0.00149603 -0.000998183)
(0.110746 -0.00356005 -0.000816953)
(0.110764 -0.00226327 -0.000953398)
(0.111397 -0.00328001 -0.000994041)
(0.112577 -0.00145682 -0.000820989)
(0.114373 -0.00319972 -0.00114829)
(0.111586 0.000453851 -0.000437432)
(0.0908399 -0.00289057 -0.000306526)
(0.078277 0.000428809 -0.000226932)
(0.106331 -0.00423362 -0.000220958)
(0.111327 -0.00228647 -0.000929012)
(0.110847 -0.00433292 -0.000769228)
(0.111021 -0.00307645 -0.000909834)
(0.111841 -0.00409117 -0.000966824)
(0.113203 -0.00219466 -0.000785614)
(0.115171 -0.00377418 -0.00112839)
(0.112397 -6.89357e-05 -0.000412213)
(0.0919148 -0.00290807 -0.000248059)
(0.0756473 -0.000142214 -0.000114084)
(0.105479 -0.00487711 -0.000105742)
(0.111113 -0.00330954 -0.000820464)
(0.110911 -0.00531933 -0.000695358)
(0.111279 -0.00413797 -0.000839796)
(0.112336 -0.00511751 -0.00091776)
(0.113935 -0.00316035 -0.000733162)
(0.116132 -0.00451599 -0.00108901)
(0.113475 -0.000719389 -0.000375706)
(0.0933426 -0.00297729 -0.000169886)
(0.0723785 -0.000794397 6.03238e-05)
(0.104326 -0.00570676 6.26609e-05)
(0.110786 -0.00461863 -0.000658515)
(0.110939 -0.00657608 -0.00058404)
(0.111543 -0.00550939 -0.000733752)
(0.112897 -0.00642406 -0.000837975)
(0.114805 -0.00442039 -0.000656122)
(0.117308 -0.00548398 -0.00102289)
(0.114903 -0.0015421 -0.000321452)
(0.0952358 -0.00311214 -6.46468e-05)
(0.0683601 -0.00151744 0.000324028)
(0.102755 -0.00674725 0.000308645)
(0.110322 -0.00626994 -0.000425211)
(0.110927 -0.00817095 -0.000419132)
(0.111815 -0.00726501 -0.000577754)
(0.113539 -0.00809556 -0.000715088)
(0.115853 -0.00606437 -0.000544077)
(0.11877 -0.00676156 -0.00091964)
(0.116797 -0.00260107 -0.000239644)
(0.0977456 -0.00333922 7.90993e-05)
(0.0635242 -0.00228426 0.000707666)
(0.100608 -0.00799775 0.000662552)
(0.109676 -0.00831088 -9.60527e-05)
(0.110866 -0.0101812 -0.000177614)
(0.11209 -0.00949258 -0.000352161)
(0.11427 -0.010242 -0.00053103)
(0.117117 -0.00821553 -0.000382592)
(0.120606 -0.00847176 -0.000764806)
(0.119312 -0.00399163 -0.000116641)
(0.101089 -0.00369485 0.000277801)
(0.0578319 -0.00303187 0.00123369)
(0.0977019 -0.00942898 0.00115916)
(0.108768 -0.0107641 0.000362475)
(0.110734 -0.0126897 0.000172903)
(0.112352 -0.0122948 -3.00678e-05)
(0.115083 -0.0130056 -0.000261231)