/*--------------------------------*- C++ -*----------------------------------*\
| =========                 |                                                 |
| \\      /  F ield         | OpenFOAM: The Open Source CFD Toolbox           |
|  \\    /   O peration     | Version:  4.1                                   |
|   \\  /    A nd           | Web:      www.OpenFOAM.org                      |
|    \\/     M anipulation  |                                                 |
\*---------------------------------------------------------------------------*/
FoamFile
{
    version     2.0;
    format      ascii;
    class       volScalarField;
    location    "2000";
    object      epsilon;
}
// * * * * * * * * * * * * * * * * * * * * * * * * * * * * * * * * * * * * * //

dimensions      [0 2 -3 0 0 0 0];

internalField   nonuniform List<scalar> 
12000
(
0.319682
0.311707
0.310466
0.310165
0.310092
0.310093
0.310168
0.310463
0.31159
0.319555
0.0651984
0.0638029
0.0628549
0.0624157
0.0622821
0.0622822
0.0624177
0.0628669
0.0638204
0.0652452
0.0176602
0.0177362
0.0173773
0.0171472
0.0170622
0.0170642
0.0171492
0.0173808
0.017736
0.0176647
0.00615949
0.00635509
0.00622299
0.00611723
0.00607283
0.00607219
0.00611807
0.0062245
0.00635283
0.00616128
0.00263734
0.00276904
0.00272887
0.00267897
0.0026536
0.00265417
0.00268005
0.0027303
0.00277207
0.00263994
0.00132342
0.00140313
0.00139696
0.00137154
0.00135582
0.0013572
0.00137243
0.00139841
0.00140474
0.0013263
0.000749183
0.000799865
0.00080423
0.000790268
0.000780134
0.000781111
0.00079101
0.000805733
0.00080131
0.000752339
0.000464727
0.000499217
0.00050647
0.000498298
0.000491553
0.000492093
0.000498847
0.000507624
0.000500374
0.000467919
0.000309377
0.000334888
0.000341855
0.000336662
0.000332128
0.000332431
0.000337204
0.000343003
0.000336013
0.000312549
0.000217563
0.000237145
0.000243642
0.000240378
0.000237135
0.000237338
0.000240827
0.000244868
0.000238116
0.000220709
0.000159909
0.000175627
0.000181594
0.00017928
0.000176888
0.000177097
0.000179661
0.000182653
0.000176717
0.000163135
0.000121734
0.000134257
0.000140133
0.000138528
0.000136845
0.000137033
0.000139027
0.000141187
0.000135453
0.000125064
9.53458e-05
0.000105878
0.000111298
0.000110237
0.000108998
0.000109207
0.000110782
0.000112384
0.000107085
9.88223e-05
7.64847e-05
8.55894e-05
9.06738e-05
8.99244e-05
8.90477e-05
8.92682e-05
9.05164e-05
9.17938e-05
8.69138e-05
8.01425e-05
6.25959e-05
7.07404e-05
7.53979e-05
7.49019e-05
7.42699e-05
7.45039e-05
7.55355e-05
7.65872e-05
7.22536e-05
6.64959e-05
5.20617e-05
5.94874e-05
6.38018e-05
6.34926e-05
6.3085e-05
6.3367e-05
6.42281e-05
6.51293e-05
6.12786e-05
5.62774e-05
4.38573e-05
5.07671e-05
5.47962e-05
5.46593e-05
5.44147e-05
5.47069e-05
5.54611e-05
5.63058e-05
5.29055e-05
4.84927e-05
3.72925e-05
4.38141e-05
4.76672e-05
4.76909e-05
4.75986e-05
4.7935e-05
4.86108e-05
4.93713e-05
4.63442e-05
4.24287e-05
3.19077e-05
3.82101e-05
4.18911e-05
4.20843e-05
4.21014e-05
4.24402e-05
4.31208e-05
4.38847e-05
4.12243e-05
3.77029e-05
2.7354e-05
3.35128e-05
3.7118e-05
3.7506e-05
3.76624e-05
3.80862e-05
3.87291e-05
3.94739e-05
3.71077e-05
3.39124e-05
2.33908e-05
2.94941e-05
3.31106e-05
3.36919e-05
3.39209e-05
3.43945e-05
3.50949e-05
3.59489e-05
3.39321e-05
3.09836e-05
1.9801e-05
2.59317e-05
2.96439e-05
3.04763e-05
3.08605e-05
3.14807e-05
3.21736e-05
3.30123e-05
3.13114e-05
2.85794e-05
1.6431e-05
2.26533e-05
2.65957e-05
2.76844e-05
2.8148e-05
2.88336e-05
2.96779e-05
3.06914e-05
2.94031e-05
2.68411e-05
1.30849e-05
1.94547e-05
2.37822e-05
2.52478e-05
2.59496e-05
2.68129e-05
2.76586e-05
2.87011e-05
2.77718e-05
2.53957e-05
9.65151e-06
1.60849e-05
2.10615e-05
2.29306e-05
2.37628e-05
2.47314e-05
2.58665e-05
2.72365e-05
2.67395e-05
2.45983e-05
5.78663e-06
1.23913e-05
1.82227e-05
2.08056e-05
2.20443e-05
2.31815e-05
2.4293e-05
2.5847e-05
2.57596e-05
2.39964e-05
2.2395e-06
8.19112e-06
1.49412e-05
1.8256e-05
1.98693e-05
2.12972e-05
2.28726e-05
2.49616e-05
2.53413e-05
2.40745e-05
1.48604e-06
4.38187e-06
1.0859e-05
1.55615e-05
1.80414e-05
1.96741e-05
2.11759e-05
2.37362e-05
2.4923e-05
2.43619e-05
2.42566e-06
3.88484e-06
5.91691e-06
9.74495e-06
1.45436e-05
1.75501e-05
1.95084e-05
2.27608e-05
2.49044e-05
2.55022e-05
4.6082e-06
6.53714e-06
6.97709e-06
7.49956e-06
8.33471e-06
1.17169e-05
1.60195e-05
2.01417e-05
2.43761e-05
2.71793e-05
0.311705
0.790055
0.788208
0.7878
0.787708
0.787713
0.787799
0.788215
0.79045
0.311872
0.0637993
0.122632
0.115612
0.114347
0.114225
0.114178
0.11437
0.115497
0.122961
0.0641215
0.0177331
0.0477831
0.0457761
0.0451676
0.0450274
0.0450233
0.0450352
0.0454878
0.0479442
0.0178583
0.00635253
0.0201567
0.0199532
0.0196746
0.0198076
0.0195011
0.019544
0.0195167
0.0205565
0.00641999
0.00276694
0.00853034
0.00893448
0.00856983
0.00793003
0.00847972
0.00854322
0.00843381
0.00890103
0.00280936
0.00140133
0.00369422
0.00349625
0.00378785
0.00516023
0.00372749
0.00371628
0.0036947
0.00392778
0.00142372
0.000798266
0.00166263
0.00267099
0.00169329
0.0027287
0.00165702
0.00163863
0.00163491
0.00177716
0.000811957
0.000497752
0.000771328
0.00144508
0.000764823
0.00115355
0.000743335
0.000729289
0.000728794
0.000825839
0.000506824
0.000333509
0.0003735
0.000618988
0.000347292
0.000514734
0.000336955
0.000328911
0.000329288
0.000398901
0.000340063
0.000235826
0.000192469
0.000279716
0.000160692
0.000231402
0.000155168
0.000150896
0.00015034
0.000202886
0.000240896
0.000174317
0.00010584
0.000127306
7.62706e-05
0.000107711
7.32229e-05
7.05333e-05
7.28915e-05
0.000110443
0.000178842
0.000132944
6.49032e-05
6.18368e-05
3.75546e-05
4.62705e-05
3.60531e-05
3.47347e-05
3.10741e-05
6.58421e-05
0.00013716
0.000104536
4.42558e-05
2.52803e-05
1.96308e-05
3.36723e-05
1.868e-05
1.81948e-05
2.70374e-05
4.34098e-05
0.00010854
8.41877e-05
3.24753e-05
2.38589e-05
1.12845e-05
2.39014e-05
1.05812e-05
1.05451e-05
1.65875e-05
3.13579e-05
8.82536e-05
6.9261e-05
2.59379e-05
1.82475e-05
7.32623e-06
1.43154e-05
6.66603e-06
6.42824e-06
7.9194e-06
2.4203e-05
7.34896e-05
5.79085e-05
2.12398e-05
1.14169e-05
5.48957e-06
7.79395e-06
4.807e-06
5.39468e-06
7.40391e-06
1.95654e-05
6.24826e-05
4.90793e-05
1.83507e-05
5.88505e-06
4.47473e-06
5.16963e-06
3.68084e-06
4.302e-06
6.04902e-06
1.60457e-05
5.38831e-05
4.19959e-05
1.60818e-05
5.59676e-06
3.9959e-06
3.74586e-06
3.5258e-06
3.93559e-06
4.37802e-06
1.3419e-05
4.72087e-05
3.62669e-05
1.48439e-05
4.96127e-06
3.74222e-06
3.59898e-06
3.27195e-06
3.59037e-06
3.09495e-06
1.12564e-05
4.16715e-05
3.14303e-05
1.37807e-05
3.97928e-06
3.54683e-06
3.26196e-06
3.11121e-06
3.29051e-06
2.99931e-06
9.72015e-06
3.73869e-05
2.73132e-05
1.36555e-05
3.50743e-06
3.46395e-06
3.08314e-06
3.04775e-06
3.25079e-06
2.79983e-06
8.42489e-06
3.36261e-05
2.36656e-05
1.37058e-05
3.66575e-06
3.4155e-06
3.09674e-06
3.07813e-06
3.22934e-06
2.67869e-06
7.4726e-06
3.07861e-05
2.04262e-05
1.39357e-05
4.0423e-06
3.44666e-06
3.16267e-06
3.15994e-06
3.25888e-06
2.74006e-06
6.67686e-06
2.80848e-05
1.7356e-05
1.45865e-05
4.84264e-06
3.65371e-06
3.40056e-06
3.30656e-06
3.3866e-06
2.88091e-06
6.06823e-06
2.61316e-05
1.43672e-05
1.51011e-05
6.52011e-06
4.01468e-06
3.64319e-06
3.53929e-06
3.57355e-06
3.2432e-06
5.75674e-06
2.41681e-05
1.12757e-05
1.58953e-05
8.46356e-06
4.85941e-06
4.1556e-06
3.8453e-06
3.85059e-06
3.59823e-06
5.39778e-06
2.28623e-05
8.07715e-06
1.75265e-05
1.11972e-05
5.92417e-06
4.73999e-06
4.42343e-06
4.44065e-06
4.31781e-06
5.92487e-06
2.13303e-05
5.05519e-06
1.95769e-05
1.43123e-05
8.16533e-06
5.904e-06
5.10551e-06
5.10164e-06
5.10566e-06
6.19501e-06
2.05317e-05
3.68927e-06
2.38069e-05
2.00919e-05
1.13774e-05
7.8443e-06
6.59743e-06
6.49932e-06
6.67547e-06
9.16896e-06
1.86879e-05
4.0031e-06
2.63694e-05
2.76732e-05
1.90517e-05
1.14323e-05
8.56326e-06
8.36758e-06
8.72372e-06
1.37149e-05
1.97364e-05
0.310464
0.78821
0.776947
0.77652
0.776435
0.776438
0.776614
0.777552
0.788419
0.310809
0.0628517
0.115614
0.0894441
0.087949
0.0876936
0.0878366
0.0882114
0.0846809
0.115694
0.0632309
0.0173745
0.0457706
0.0382236
0.0406111
0.0409262
0.0394602
0.0360043
0.036374
0.0457943
0.0175054
0.00622035
0.0199595
0.00982605
0.00260878
0.00142942
0.00479658
0.0125446
0.00241177
0.0200478
0.00629073
0.00272672
0.00889808
0.00648012
2.03708e-06
0.000374819
2.07305e-05
0.0133562
0.000125414
0.00888568
0.00276405
0.00139504
0.00356856
0.00348105
1.11982e-06
0.000111289
6.09116e-07
0.00624659
2.69057e-05
0.00371373
0.00141409
0.000802493
0.00244854
0.00135826
6.64663e-06
5.4044e-05
3.06541e-07
0.00220943
4.47493e-06
0.00218245
0.000813368
0.000504929
0.00131662
0.000750735
9.04645e-06
4.95061e-06
2.36302e-07
0.000576424
1.35702e-06
0.00114114
0.000512214
0.000340325
0.000563089
0.000226888
6.22864e-06
1.18074e-06
1.6122e-07
0.000100764
6.64947e-07
0.000498008
0.000345577
0.000242317
0.000262722
0.000141267
4.1059e-06
5.14799e-07
2.15442e-07
4.08143e-05
4.97207e-07
0.000226006
0.000246164
0.000180268
0.000105084
4.91942e-05
2.01948e-06
2.00795e-07
7.84564e-08
1.24708e-05
3.36306e-07
0.000103973
0.000183259
0.000138848
8.95866e-05
1.70803e-05
1.84064e-06
1.48107e-07
6.13317e-08
4.26368e-06
1.56628e-07
4.92019e-05
0.000141442
0.000110029
4.76365e-05
6.19014e-06
1.30599e-06
1.02987e-07
3.95576e-08
1.7044e-06
2.45449e-07
2.43184e-05
0.000112434
8.92657e-05
3.42315e-05
3.62284e-06
9.2532e-07
1.0089e-07
3.14804e-08
6.85169e-07
1.43535e-07
1.27985e-05
9.16812e-05
7.3899e-05
2.10973e-05
1.96105e-06
6.29674e-07
8.84202e-08
3.00961e-08
5.58088e-07
9.59451e-08
1.20291e-05
7.62627e-05
6.21908e-05
1.05461e-05
1.38188e-06
4.62355e-07
7.32577e-08
3.29304e-08
3.17761e-07
7.42487e-08
9.63686e-06
6.4708e-05
5.30252e-05
1.02755e-05
9.94256e-07
3.65058e-07
6.95051e-08
2.65576e-08
1.49894e-07
4.49539e-08
6.25443e-06
5.55856e-05
4.56919e-05
8.80909e-06
7.71293e-07
2.18825e-07
6.78262e-08
3.81046e-08
1.14027e-07
5.54857e-08
3.77734e-06
4.85724e-05
3.96889e-05
6.88988e-06
4.97314e-07
1.30157e-07
5.62228e-08
3.54074e-08
1.00562e-07
3.95122e-08
2.73361e-06
4.26684e-05
3.46412e-05
5.94612e-06
4.44537e-07
1.01262e-07
5.37749e-08
3.96926e-08
7.67849e-08
3.84071e-08
2.17501e-06
3.81741e-05
3.03398e-05
6.00416e-06
4.08228e-07
9.65071e-08
5.7542e-08
4.60243e-08
6.56077e-08
3.65964e-08
1.81174e-06
3.40406e-05
2.65205e-05
6.33847e-06
4.57161e-07
1.05194e-07
6.56146e-08
5.73987e-08
7.30806e-08
4.15801e-08
1.57739e-06
3.10285e-05
2.31359e-05
7.30344e-06
6.36161e-07
1.34012e-07
8.38547e-08
6.95114e-08
8.20634e-08
5.49891e-08
1.39408e-06
2.79247e-05
1.99839e-05
8.19153e-06
9.73591e-07
1.8055e-07
1.08356e-07
8.57452e-08
1.0185e-07
7.19835e-08
1.27205e-06
2.5809e-05
1.70832e-05
9.69063e-06
1.4302e-06
2.81713e-07
1.48388e-07
1.11736e-07
1.23893e-07
1.03955e-07
1.13528e-06
2.33073e-05
1.43093e-05
1.13364e-05
2.21222e-06
4.30462e-07
2.08682e-07
1.51959e-07
1.62046e-07
1.37298e-07
1.03782e-06
2.16534e-05
1.16333e-05
1.24363e-05
3.80753e-06
7.81818e-07
2.99161e-07
2.0956e-07
2.11943e-07
2.00635e-07
9.03715e-07
1.9327e-05
9.0159e-06
1.36987e-05
6.14262e-06
1.33821e-06
5.28005e-07
3.12518e-07
2.98407e-07
2.75021e-07
8.76756e-07
1.77957e-05
6.69957e-06
1.56591e-05
8.9559e-06
2.7181e-06
8.48734e-07
4.69424e-07
4.36374e-07
4.40753e-07
8.79913e-07
1.45994e-05
5.18729e-06
1.78908e-05
1.33967e-05
4.92631e-06
1.98705e-06
8.95453e-07
6.80293e-07
6.62982e-07
1.64754e-06
1.29774e-05
0.310164
0.787806
0.776508
0.775786
0.775663
0.775659
0.775786
0.776358
0.788004
0.310525
0.062412
0.114344
0.0879503
0.0855771
0.0859733
0.0847825
0.086203
0.0878578
0.11442
0.0627869
0.0171449
0.0451746
0.04068
0.0349494
0.0282675
0.0368979
0.0298833
0.0358681
0.0451581
0.0172691
0.00611431
0.0196771
0.00236368
0.0015482
0.000585525
0.00150614
0.000623441
0.0027596
0.0197092
0.00617995
0.00267653
0.00860001
3.92455e-06
6.1181e-07
3.03516e-08
2.93405e-07
3.05686e-08
0.000750071
0.00862034
0.00271065
0.0013697
0.00377771
5.23914e-07
1.71374e-08
2.20965e-09
9.28728e-10
2.37096e-07
0.000458371
0.00380312
0.00138793
0.000788369
0.00167995
3.21353e-07
4.38639e-10
1.14479e-08
2.11715e-11
3.5883e-09
0.00012565
0.00169414
0.000799453
0.000496387
0.000755576
3.19567e-07
4.43719e-10
2.45404e-11
6.61727e-11
7.36014e-09
3.51869e-05
0.000760207
0.000503705
0.000334886
0.000345514
2.04625e-07
4.04322e-10
1.07159e-10
6.13286e-11
1.07531e-09
8.20348e-06
0.00034421
0.000340269
0.000238606
0.000151515
3.74629e-07
5.77056e-10
1.24039e-10
6.32777e-11
1.03744e-09
3.58069e-06
0.000158234
0.000242942
0.00017748
8.90604e-05
1.36098e-07
5.29973e-10
9.4715e-11
7.26006e-11
3.07607e-10
1.47333e-06
7.47369e-05
0.000181397
0.000136776
5.05621e-05
1.10353e-07
6.62526e-10
5.45567e-11
5.48735e-11
3.33456e-10
8.97759e-07
3.63342e-05
0.000140538
0.000108442
2.45414e-05
9.4576e-08
5.31496e-10
7.10968e-11
9.88411e-11
7.84817e-10
4.96313e-07
1.88729e-05
0.000112213
8.80531e-05
1.41782e-05
1.09467e-07
5.86173e-10
7.31808e-11
5.71298e-11
4.16239e-10
2.49356e-07
1.03903e-05
9.19633e-05
7.2884e-05
8.5026e-06
1.28499e-07
1.43553e-09
5.91102e-11
7.40442e-11
4.61613e-10
1.70491e-07
6.69417e-06
7.68319e-05
6.13096e-05
7.95378e-06
1.27385e-07
1.36305e-09
7.02493e-11
5.76482e-11
5.91068e-10
1.2383e-07
4.57478e-06
6.54103e-05
5.22464e-05
6.68405e-06
1.61074e-07
2.75014e-09
7.64251e-11
3.98949e-11
9.61397e-10
7.10844e-08
3.61553e-06
5.63473e-05
4.50043e-05
6.08978e-06
1.79156e-07
3.14773e-09
2.71372e-10
9.4857e-11
5.74313e-10
3.92434e-08
2.96899e-06
4.93905e-05
3.90906e-05
6.16182e-06
2.35922e-07
7.90121e-09
3.70067e-10
1.33025e-10
8.2288e-10
2.76181e-08
2.73402e-06
4.35098e-05
3.41424e-05
6.4243e-06
3.33878e-07
1.05816e-08
6.18532e-10
1.87072e-10
6.20223e-10
2.26692e-08
2.50744e-06
3.90604e-05
2.9922e-05
6.9272e-06
4.48246e-07
1.8761e-08
7.20702e-10
2.70584e-10
5.26812e-10
2.10653e-08
2.27863e-06
3.49339e-05
2.6204e-05
7.43864e-06
6.39588e-07
3.30669e-08
2.66875e-09
3.30811e-10
6.11375e-10
2.10377e-08
2.09902e-06
3.19854e-05
2.29065e-05
8.25604e-06
8.61613e-07
5.94919e-08
3.30014e-09
8.49635e-10
7.56751e-10
1.87751e-08
1.90582e-06
2.88647e-05
1.98654e-05
9.03719e-06
1.23529e-06
1.0461e-07
1.08136e-08
1.06882e-09
1.23671e-09
1.86182e-08
1.74241e-06
2.68746e-05
1.70679e-05
1.01815e-05
1.64142e-06
1.93104e-07
1.6347e-08
3.34157e-09
1.56264e-09
1.75957e-08
1.57245e-06
2.42734e-05
1.44287e-05
1.1487e-05
2.3227e-06
3.10272e-07
4.50566e-08
4.78525e-09
3.34862e-09
1.65249e-08
1.42417e-06
2.2757e-05
1.19116e-05
1.2119e-05
3.75046e-06
5.76742e-07
7.40067e-08
1.59874e-08
3.83732e-09
1.47734e-08
1.14615e-06
2.02246e-05
9.51565e-06
1.28562e-05
5.49938e-06
1.02199e-06
1.89749e-07
2.81937e-08
1.21733e-08
1.59045e-08
1.01505e-06
1.87166e-05
7.25408e-06
1.3768e-05
7.3676e-06
1.77694e-06
3.40864e-07
8.13266e-08
1.70149e-08
1.79149e-08
7.30894e-07
1.48894e-05
5.28738e-06
1.47718e-05
9.8163e-06
2.98335e-06
7.80468e-07
1.85991e-07
5.42898e-08
4.10375e-08
8.31757e-07
1.32304e-05
0.31009
0.787715
0.776318
0.775657
0.775648
0.775647
0.775723
0.776462
0.787916
0.310451
0.062278
0.114154
0.087867
0.0858017
0.0859593
0.0860846
0.0861112
0.0877752
0.114269
0.0626515
0.0170594
0.0450295
0.0379552
0.0291454
0.0335552
0.0322441
0.0314425
0.0386994
0.0450521
0.0171835
0.00606859
0.0195928
0.00317528
0.00086844
0.00155307
0.00173125
0.00090819
0.00562831
0.0196704
0.00613344
0.00265103
0.00855783
0.00130542
8.99815e-08
4.87095e-07
5.36139e-07
4.01969e-08
0.00187895
0.00859727
0.00268499
0.00135439
0.00375881
0.000651604
1.68099e-09
1.91616e-07
1.11203e-08
3.41924e-08
0.00103399
0.00379023
0.00137229
0.000778631
0.00166686
0.00022565
3.55208e-07
1.3734e-07
2.55846e-12
6.53256e-09
0.000185425
0.00168152
0.000789549
0.000490133
0.000749461
0.000276812
2.40512e-09
2.86503e-08
1.40082e-13
1.46289e-08
7.09372e-05
0.000751822
0.000497068
0.000330599
0.000339152
0.00023229
4.14582e-09
1.68698e-09
5.91571e-14
5.2786e-09
2.36725e-05
0.000339821
0.000335646
0.000235527
0.000160468
0.000144895
9.68121e-09
7.67678e-10
4.88576e-14
3.60124e-09
1.02133e-05
0.000155935
0.000239658
0.000175182
6.83147e-05
0.000119542
1.32038e-08
3.35278e-10
3.6957e-14
2.61995e-09
4.58637e-06
7.25067e-05
0.000178934
0.000135009
5.25512e-05
9.52773e-05
1.0588e-06
1.02843e-10
3.29415e-14
8.56317e-10
1.93606e-06
3.4839e-05
0.000138733
0.000107075
3.09694e-05
5.86632e-05
6.91072e-07
2.24531e-11
4.87701e-14
5.30748e-10
1.15254e-06
1.75759e-05
0.000110759
8.69714e-05
1.6398e-05
3.92081e-05
4.49113e-07
3.46439e-11
6.67073e-14
3.73961e-10
7.7664e-07
9.34366e-06
9.06808e-05
7.20586e-05
1.07685e-05
2.07892e-05
3.21689e-07
7.20175e-11
1.86177e-13
2.36847e-10
3.74754e-07
5.93516e-06
7.56903e-05
6.06797e-05
7.69631e-06
8.73533e-06
2.26105e-07
9.98346e-10
9.08554e-12
2.0704e-10
3.07073e-07
4.06599e-06
6.43967e-05
5.17688e-05
7.43418e-06
3.97559e-06
1.42738e-07
4.02691e-09
2.45208e-11
1.53277e-10
1.63693e-07
3.01292e-06
5.54518e-05
4.46375e-05
6.88841e-06
1.89342e-06
8.54491e-08
2.15438e-09
2.627e-11
6.84805e-11
7.4221e-08
2.48095e-06
4.85822e-05
3.88121e-05
6.65073e-06
1.02349e-06
5.36579e-08
3.92051e-09
6.71966e-11
7.45868e-11
3.94166e-08
2.17246e-06
4.27648e-05
3.39303e-05
6.72752e-06
6.96745e-07
3.92019e-08
3.54263e-09
2.38662e-11
5.99097e-11
2.27736e-08
2.00129e-06
3.83714e-05
2.97741e-05
7.16472e-06
6.38446e-07
3.54175e-08
3.94815e-09
2.07835e-10
8.24308e-11
2.24239e-08
1.83792e-06
3.42854e-05
2.61176e-05
7.62398e-06
7.42709e-07
4.62084e-08
2.83374e-09
3.11292e-10
9.51966e-11
2.04322e-08
1.71052e-06
3.13908e-05
2.28781e-05
8.41503e-06
9.29244e-07
6.76798e-08
6.93655e-09
5.14551e-10
1.39622e-10
1.83699e-08
1.56125e-06
2.82736e-05
1.98831e-05
9.16075e-06
1.27423e-06
1.12633e-07
7.85355e-09
4.75748e-10
1.55125e-10
1.53283e-08
1.40947e-06
2.62965e-05
1.71195e-05
1.02467e-05
1.66842e-06
1.90107e-07
2.27877e-08
2.49395e-09
3.00022e-10
1.24759e-08
1.26876e-06
2.37179e-05
1.44783e-05
1.1475e-05
2.32233e-06
3.19298e-07
3.31346e-08
3.42558e-09
4.46109e-10
1.17339e-08
1.09377e-06
2.21383e-05
1.19616e-05
1.21367e-05
3.74972e-06
5.53039e-07
8.71402e-08
1.45608e-08
1.35962e-09
7.67103e-09
8.98433e-07
1.97456e-05
9.49773e-06
1.27666e-05
5.41087e-06
1.01496e-06
1.55247e-07
2.3276e-08
3.93821e-09
7.45553e-09
7.94669e-07
1.80994e-05
7.21316e-06
1.37855e-05
7.37605e-06
1.7001e-06
3.50441e-07
7.98111e-08
1.08434e-08
9.99993e-09
5.91232e-07
1.46239e-05
5.06605e-06
1.4578e-05
9.70004e-06
2.99111e-06
7.09253e-07
1.69629e-07
3.92007e-08
2.40756e-08
7.06101e-07
1.24652e-05
0.310091
0.787715
0.776318
0.775504
0.77542
0.775525
0.775678
0.776183
0.787921
0.310451
0.0622779
0.114138
0.0877909
0.0848259
0.0847525
0.0850268
0.0857477
0.0873959
0.114104
0.0626508
0.0170598
0.0449958
0.0384455
0.0232749
0.0228086
0.029965
0.0310838
0.0337548
0.0449308
0.0171828
0.0060686
0.0194873
0.00301794
0.00082224
0.00039299
0.00114949
0.00166291
0.00465052
0.0195788
0.00613292
0.00265115
0.00849213
0.000984489
4.45539e-07
4.45134e-08
4.40608e-07
6.10674e-07
0.00187543
0.00853919
0.00268453
0.00135433
0.00372534
0.000553594
3.13709e-09
2.30688e-12
2.41805e-07
1.73809e-09
0.000819808
0.00375415
0.00137245
0.000778736
0.00165185
0.000209283
1.2736e-07
4.7075e-13
4.38816e-10
1.90868e-07
0.000355798
0.00166205
0.000789623
0.000489976
0.000734752
0.000117612
2.22281e-07
4.98248e-13
6.42228e-13
3.46131e-07
0.000163763
0.00074319
0.000497137
0.000330411
0.000340297
5.93247e-05
8.32923e-08
9.65563e-12
4.16573e-09
3.86845e-08
5.65941e-05
0.000335642
0.000335725
0.000235372
0.000136025
1.01761e-05
4.23964e-09
4.68816e-13
2.10218e-10
1.33534e-07
6.12311e-05
0.000154221
0.000239719
0.000175148
0.000111617
4.10741e-06
1.39556e-09
3.58749e-13
1.38376e-11
1.14099e-08
4.47806e-05
7.17919e-05
0.000179022
0.000134959
7.62168e-05
1.71305e-06
1.19119e-09
6.04823e-13
3.83884e-11
4.56007e-08
3.44209e-05
3.60969e-05
0.000138825
0.000107034
4.33449e-05
1.74601e-06
1.52266e-09
1.22469e-12
5.46885e-12
7.06692e-09
1.68765e-05
1.57073e-05
0.000110831
8.69657e-05
1.90173e-05
1.0043e-06
6.05919e-09
1.38663e-11
8.17864e-12
8.03922e-09
1.21348e-05
1.51577e-05
9.07168e-05
7.20287e-05
1.62138e-05
8.123e-07
5.75675e-09
5.20616e-12
1.87794e-12
4.03974e-09
6.30813e-06
8.93184e-06
7.56904e-05
6.06193e-05
1.15782e-05
6.88281e-07
6.30793e-09
1.24338e-10
5.89724e-12
2.27554e-09
3.03929e-06
7.33893e-06
6.43684e-05
5.17162e-05
8.27642e-06
4.48381e-07
8.94278e-09
1.95266e-10
2.5136e-12
9.5839e-10
1.51902e-06
6.10509e-06
5.54224e-05
4.45923e-05
6.79993e-06
3.08227e-07
7.01119e-09
2.81844e-10
8.5772e-12
4.72339e-10
6.6182e-07
4.29738e-06
4.85727e-05
3.87728e-05
6.50106e-06
3.00446e-07
1.01455e-08
4.2376e-10
2.17271e-11
2.8757e-10
3.15168e-07
3.83309e-06
4.28019e-05
3.38959e-05
6.53974e-06
3.57189e-07
1.20424e-08
2.37085e-10
2.9693e-11
1.869e-10
1.25542e-07
3.13833e-06
3.84629e-05
2.97388e-05
6.97541e-06
4.61293e-07
1.81672e-08
1.23132e-09
2.55487e-11
2.16431e-10
1.29582e-07
2.58429e-06
3.4421e-05
2.60828e-05
7.43325e-06
6.4441e-07
3.29068e-08
1.23782e-09
1.35527e-10
2.39023e-10
1.07927e-07
2.26345e-06
3.15929e-05
2.28344e-05
8.22439e-06
8.60997e-07
5.89637e-08
4.92491e-09
4.34744e-11
2.45741e-10
8.82946e-08
2.03476e-06
2.85297e-05
1.98357e-05
8.99952e-06
1.21891e-06
1.02329e-07
6.30728e-09
8.46512e-10
2.63145e-10
5.4616e-08
1.74314e-06
2.66024e-05
1.70732e-05
1.01313e-05
1.63728e-06
1.84802e-07
2.12236e-08
1.02086e-09
3.8916e-10
3.78581e-08
1.6034e-06
2.40128e-05
1.44404e-05
1.14084e-05
2.28376e-06
3.08778e-07
3.1281e-08
5.50951e-09
5.48644e-10
2.72475e-08
1.39715e-06
2.25377e-05
1.19337e-05
1.21006e-05
3.75581e-06
5.48309e-07
8.67196e-08
8.05511e-09
1.88384e-09
1.98573e-08
1.14575e-06
2.00952e-05
9.49431e-06
1.27006e-05
5.38386e-06
1.02866e-06
1.54914e-07
3.14028e-08
5.29601e-09
1.36001e-08
1.03392e-06
1.86225e-05
7.24502e-06
1.37309e-05
7.37262e-06
1.70226e-06
3.56478e-07
5.72627e-08
1.12912e-08
1.22381e-08
7.29849e-07
1.50148e-05
5.11702e-06
1.439e-05
9.57056e-06
2.9787e-06
7.11148e-07
1.78001e-07
5.01891e-08
3.82588e-08
8.04713e-07
1.25881e-05
0.310166
0.787805
0.776207
0.775745
0.775668
0.775733
0.775666
0.776344
0.788008
0.310523
0.0624132
0.114247
0.0871045
0.0859156
0.0858437
0.085807
0.085369
0.0873177
0.114388
0.0627852
0.017144
0.0449084
0.0330321
0.0285252
0.0293224
0.0347792
0.0254072
0.0391871
0.0450211
0.017268
0.00611518
0.0194488
0.00443603
0.000575079
0.000618564
0.00163615
0.000449553
0.00375743
0.0195617
0.00617842
0.00267606
0.00843444
0.00163151
2.39741e-08
2.46326e-08
5.89467e-07
6.71293e-08
0.00117106
0.00852871
0.00270938
0.00136914
0.00368502
0.0012806
1.12436e-07
1.68296e-08
1.83407e-08
2.27699e-08
0.000521804
0.00372396
0.0013874
0.000788181
0.00162276
0.000295576
1.08818e-09
3.99967e-10
1.02641e-10
5.00097e-10
0.00021631
0.00164569
0.000798935
0.00049635
0.000719312
7.71523e-05
8.85105e-10
6.82687e-11
1.03564e-07
2.92288e-10
3.61363e-05
0.000732175
0.000503332
0.000334939
0.000329283
1.02297e-05
4.38062e-10
1.07563e-09
1.10836e-08
1.49497e-09
9.83394e-06
0.000330065
0.000340033
0.000238665
0.000137927
3.15916e-06
1.25448e-09
5.32324e-10
1.03587e-08
2.13612e-10
1.85932e-06
0.000150745
0.000242806
0.000177519
9.71156e-05
1.7002e-06
5.65097e-09
1.04538e-09
2.65393e-09
3.67651e-10
4.40113e-07
7.1588e-05
0.000181281
0.000136786
6.49084e-05
1.13246e-06
5.07727e-09
8.41633e-10
2.43887e-09
4.41466e-10
2.17813e-07
3.21618e-05
0.00014043
0.00010845
3.76972e-05
8.92131e-07
5.71178e-09
6.04495e-10
8.4511e-10
2.27953e-10
1.11018e-07
2.26164e-05
0.000112117
8.80504e-05
1.74167e-05
7.41784e-07
7.98213e-09
4.87811e-10
1.83618e-09
2.0629e-10
4.47143e-08
1.3097e-05
9.18586e-05
7.28733e-05
1.48399e-05
5.31405e-07
7.42911e-09
2.89742e-10
5.24388e-10
2.31361e-10
5.58789e-08
9.70302e-06
7.67515e-05
6.12898e-05
1.04017e-05
3.60574e-07
8.92921e-09
3.51525e-10
4.06485e-10
2.20655e-10
3.0486e-08
6.59394e-06
6.53256e-05
5.22352e-05
7.73244e-06
2.89687e-07
7.1497e-09
3.85013e-10
3.40367e-10
2.8495e-10
2.4986e-08
4.08346e-06
5.62615e-05
4.49848e-05
6.86836e-06
2.89695e-07
6.9836e-09
5.39163e-10
4.33843e-10
4.30977e-10
2.35522e-08
3.5801e-06
4.93008e-05
3.90611e-05
6.71441e-06
3.12542e-07
9.98071e-09
6.40777e-10
5.66538e-10
6.4145e-10
2.3765e-08
3.05381e-06
4.34407e-05
3.41042e-05
6.89146e-06
4.13914e-07
1.46503e-08
1.15784e-09
8.27862e-10
9.74505e-10
2.46487e-08
2.65448e-06
3.90288e-05
2.98881e-05
7.33987e-06
5.21465e-07
2.35759e-08
1.45395e-09
1.07177e-09
1.42592e-09
2.61617e-08
2.41452e-06
3.49301e-05
2.61867e-05
7.84133e-06
7.2495e-07
4.11143e-08
3.51114e-09
1.6282e-09
1.95403e-09
2.62979e-08
2.20849e-06
3.20412e-05
2.28973e-05
8.61145e-06
9.37253e-07
6.7455e-08
4.9669e-09
2.20965e-09
2.7185e-09
2.59828e-08
2.00604e-06
2.89422e-05
1.98684e-05
9.36668e-06
1.31745e-06
1.16315e-07
1.2896e-08
3.82427e-09
3.57399e-09
2.60464e-08
1.8328e-06
2.69747e-05
1.70715e-05
1.04575e-05
1.69701e-06
2.02073e-07
2.03837e-08
5.19885e-09
5.53627e-09
2.52616e-08
1.59758e-06
2.43276e-05
1.44388e-05
1.16557e-05
2.40801e-06
3.19071e-07
4.81447e-08
1.19625e-08
6.96334e-09
2.29243e-08
1.40571e-06
2.28488e-05
1.19236e-05
1.2198e-05
3.79989e-06
5.79374e-07
8.22429e-08
1.75852e-08
1.40754e-08
2.37183e-08
1.18951e-06
2.03755e-05
9.53894e-06
1.28394e-05
5.50782e-06
1.02594e-06
1.88946e-07
4.77868e-08
1.84908e-08
3.17555e-08
1.03684e-06
1.87111e-05
7.2882e-06
1.37025e-05
7.30976e-06
1.7616e-06
3.58051e-07
8.27608e-08
4.34677e-08
4.03082e-08
7.97517e-07
1.53675e-05
5.40561e-06
1.46221e-05
9.66325e-06
2.91924e-06
7.52725e-07
2.13396e-07
7.87033e-08
7.24386e-08
8.6916e-07
1.25826e-05
0.310461
0.788218
0.776924
0.776342
0.776144
0.776477
0.776463
0.776951
0.788417
0.310812
0.0628622
0.11543
0.0890604
0.0873735
0.086829
0.087606
0.0877952
0.0893971
0.115563
0.0632342
0.0173762
0.0454749
0.0406675
0.0389974
0.0351491
0.0400541
0.0397476
0.0362032
0.0454542
0.017503
0.00622062
0.0194673
0.00315492
0.00307862
0.00262565
0.00244975
0.00318886
0.0127497
0.019642
0.00628686
0.00272665
0.00845323
0.00136763
0.000911066
0.000737741
0.000682675
1.4548e-06
0.0120177
0.00854383
0.00276079
0.00139521
0.00359188
0.000717056
0.000525996
0.000441239
0.000215576
1.13107e-06
0.00630667
0.00376121
0.00141341
0.000802792
0.00187697
0.000416515
0.000104154
7.89644e-05
5.70581e-05
7.61543e-07
0.00202125
0.0016691
0.000813024
0.000505068
0.000938383
9.19121e-05
2.68373e-05
1.88349e-05
2.87453e-05
2.48777e-07
0.000381572
0.000746712
0.000511989
0.000340578
0.000414269
2.46077e-05
5.17738e-06
5.08529e-06
1.25409e-05
3.78682e-07
0.000146294
0.000338106
0.000345471
0.000242461
0.000188446
8.28762e-06
1.02154e-06
2.00377e-06
5.3501e-06
1.9982e-07
3.89376e-05
0.000155248
0.00024612
0.000180168
9.0309e-05
2.79408e-06
6.11016e-07
8.37494e-07
2.89781e-06
2.90348e-07
1.44518e-05
7.30295e-05
0.000183178
0.000138806
3.86666e-05
2.40171e-06
2.94046e-07
6.07031e-07
1.3165e-06
1.56644e-07
8.07204e-06
3.50796e-05
0.000141336
0.000110054
3.67743e-05
1.19894e-06
1.81005e-07
2.9305e-07
9.18818e-07
7.83757e-08
4.41938e-06
1.79722e-05
0.000112321
8.92715e-05
2.78869e-05
7.12419e-07
1.21411e-07
2.11004e-07
6.26194e-07
5.14727e-08
2.31082e-06
1.00247e-05
9.15807e-05
7.39352e-05
1.7714e-05
5.85217e-07
1.04691e-07
1.24058e-07
3.41772e-07
7.23571e-08
1.21996e-06
5.73092e-06
7.6189e-05
6.21651e-05
9.3119e-06
3.71797e-07
7.9833e-08
7.60715e-08
1.6654e-07
4.2966e-08
5.95041e-07
4.4439e-06
6.46187e-05
5.30329e-05
9.73301e-06
3.50897e-07
6.37372e-08
5.31304e-08
9.91133e-08
4.84215e-08
4.6114e-07
3.24363e-06
5.54903e-05
4.56458e-05
7.64176e-06
3.53322e-07
6.16135e-08
4.84987e-08
7.46464e-08
5.51113e-08
2.55635e-07
2.96457e-06
4.84668e-05
3.96126e-05
6.39744e-06
2.90515e-07
6.20848e-08
5.21388e-08
6.85608e-08
6.57837e-08
1.38433e-07
2.54076e-06
4.25993e-05
3.45427e-05
6.14008e-06
2.9849e-07
7.24672e-08
6.36886e-08
7.35154e-08
8.25145e-08
9.52958e-08
2.23074e-06
3.81094e-05
3.02146e-05
6.47372e-06
3.75219e-07
8.63114e-08
7.62113e-08
8.38895e-08
1.01137e-07
9.01045e-08
2.02054e-06
3.4046e-05
2.63912e-05
6.92968e-06
5.28356e-07
1.16169e-07
9.94698e-08
1.05232e-07
1.20609e-07
9.73475e-08
1.87987e-06
3.10797e-05
2.2997e-05
7.92922e-06
7.52241e-07
1.55763e-07
1.19778e-07
1.27545e-07
1.46478e-07
1.23191e-07
1.73131e-06
2.80334e-05
1.98398e-05
8.74422e-06
1.14872e-06
2.28667e-07
1.57413e-07
1.62513e-07
1.75684e-07
1.47371e-07
1.62134e-06
2.60341e-05
1.69118e-05
1.0347e-05
1.59091e-06
3.43654e-07
2.0717e-07
1.97715e-07
2.13649e-07
1.92581e-07
1.46925e-06
2.35268e-05
1.4082e-05
1.17316e-05
2.48715e-06
5.10746e-07
2.86605e-07
2.59319e-07
2.65842e-07
2.40907e-07
1.3822e-06
2.20565e-05
1.13055e-05
1.2901e-05
4.1812e-06
9.02617e-07
4.14245e-07
3.32808e-07
3.38319e-07
3.23649e-07
1.20264e-06
1.96163e-05
8.57189e-06
1.4152e-05
6.62457e-06
1.52381e-06
6.48043e-07
4.79435e-07
4.64147e-07
4.3559e-07
1.10663e-06
1.83485e-05
6.12626e-06
1.66586e-05
9.62517e-06
2.91383e-06
1.09135e-06
6.99833e-07
6.52362e-07
6.85813e-07
1.54645e-06
1.49902e-05
4.96697e-06
1.90958e-05
1.49285e-05
5.64674e-06
2.34468e-06
1.33789e-06
1.02718e-06
1.02271e-06
2.08389e-06
1.33458e-05
0.311589
0.790445
0.788421
0.788007
0.787919
0.787914
0.788007
0.788416
0.790639
0.311922
0.0638164
0.122944
0.115635
0.11442
0.114106
0.114253
0.114392
0.115562
0.123201
0.0641771
0.0177308
0.0479833
0.0457989
0.0451535
0.0449633
0.0450026
0.0450339
0.0454606
0.0481025
0.0178814
0.00635104
0.0205469
0.02
0.0197138
0.0196136
0.0196008
0.0195672
0.019636
0.0208803
0.00643432
0.00276528
0.00886143
0.00900033
0.00862851
0.0085717
0.00854888
0.00851752
0.00853879
0.00916757
0.00281409
0.00140139
0.00388659
0.00343605
0.00379006
0.00376507
0.00374579
0.00374055
0.00376747
0.00407468
0.00142643
0.000798443
0.00175839
0.00284834
0.00168925
0.00166953
0.0016569
0.00165139
0.00166984
0.00184708
0.000812226
0.000497747
0.000818009
0.0015333
0.000760723
0.000746993
0.000740083
0.000737934
0.000746227
0.000858478
0.000506696
0.000333582
0.000395921
0.0006511
0.00034777
0.000338436
0.000334454
0.000333583
0.000337951
0.000414519
0.000339768
0.000235715
0.000202991
0.000293692
0.000160644
0.000155389
0.000153623
0.000152838
0.000156448
0.000210127
0.000241051
0.000174138
0.000112651
0.000133869
7.54659e-05
7.28127e-05
7.18973e-05
7.17363e-05
7.37378e-05
0.000113618
0.000178699
0.000133084
6.90318e-05
6.27877e-05
3.78331e-05
3.65447e-05
3.5002e-05
3.61215e-05
3.8094e-05
6.63079e-05
0.000137358
0.000104579
4.63702e-05
2.98175e-05
1.76645e-05
1.66919e-05
1.85032e-05