/*--------------------------------*- C++ -*----------------------------------*\
| =========                 |                                                 |
| \\      /  F ield         | OpenFOAM: The Open Source CFD Toolbox           |
|  \\    /   O peration     | Version:  4.1                                   |
|   \\  /    A nd           | Web:      www.OpenFOAM.org                      |
|    \\/     M anipulation  |                                                 |
\*---------------------------------------------------------------------------*/
FoamFile
{
    version     2.0;
    format      ascii;
    class       volScalarField;
    location    "2000";
    object      k;
}
// * * * * * * * * * * * * * * * * * * * * * * * * * * * * * * * * * * * * * //

dimensions      [0 2 -2 0 0 0 0];

internalField   nonuniform List<scalar> 
12000
(
0.116733
0.114783
0.114478
0.114405
0.114387
0.114387
0.114405
0.114478
0.114755
0.116702
0.0404457
0.0398665
0.0394706
0.0392866
0.0392305
0.0392305
0.0392874
0.0394756
0.0398738
0.0404651
0.0169321
0.0169807
0.0167508
0.0166026
0.0165477
0.016549
0.0166039
0.0167531
0.0169805
0.016935
0.00838967
0.00856635
0.00844722
0.00835125
0.00831079
0.0083102
0.00835201
0.00844859
0.00856432
0.00839129
0.00476605
0.00492342
0.00487569
0.00481607
0.00478562
0.00478631
0.00481737
0.00487739
0.00492702
0.00476918
0.00300962
0.0031293
0.00312012
0.00308215
0.00305856
0.00306062
0.00308348
0.00312227
0.00313169
0.00301399
0.00205955
0.00215142
0.00215924
0.00213418
0.00211589
0.00211766
0.00213552
0.00216193
0.00215401
0.00206533
0.00149801
0.00157123
0.00158642
0.00156931
0.00155511
0.00155625
0.00157046
0.00158882
0.00157366
0.00150486
0.00114211
0.00120406
0.0012207
0.00120831
0.00119743
0.00119816
0.0012096
0.00122343
0.00120675
0.0011499
0.000903175
0.000956586
0.000973978
0.000965259
0.00095656
0.000957105
0.000966462
0.000977242
0.000959194
0.000911859
0.000735581
0.000783026
0.000800661
0.000793845
0.000786767
0.000787387
0.000794969
0.000803771
0.000786262
0.00074544
0.000613277
0.000654644
0.000673611
0.000668457
0.000663031
0.000663639
0.000670059
0.000676982
0.000658527
0.000624409
0.000521094
0.000558793
0.000577706
0.000574029
0.00056972
0.000570446
0.000575918
0.000581458
0.000563033
0.000533684
0.000449881
0.00048491
0.000503929
0.000501149
0.000497886
0.000498708
0.000503345
0.00050807
0.0004899
0.000464113
0.000393621
0.000427064
0.000445609
0.000443653
0.000441154
0.00044208
0.000446151
0.000450283
0.000433133
0.000409806
0.000348118
0.00038048
0.00039866
0.000397371
0.000395669
0.000396847
0.000400434
0.000404172
0.000388079
0.000366666
0.00031051
0.000342323
0.000360204
0.000359603
0.00035853
0.000359812
0.000363112
0.000366789
0.00035187
0.000332021
0.000278695
0.000310306
0.000328242
0.000328351
0.000327927
0.000329471
0.00033256
0.000336019
0.00032214
0.00030373
0.000251176
0.000283248
0.000301159
0.000302084
0.000302166
0.000303785
0.000307024
0.00031064
0.000297954
0.000280736
0.000226671
0.00025953
0.000277825
0.000279757
0.000280535
0.000282635
0.000285807
0.00028946
0.000277773
0.000261589
0.00020421
0.000238344
0.00025745
0.000260455
0.000261633
0.000264063
0.000267636
0.00027196
0.000261691
0.000246302
0.000182742
0.000218743
0.000239151
0.000243607
0.00024565
0.00024893
0.00025257
0.00025694
0.000248037
0.000233391
0.00016137
0.000199895
0.000222462
0.000228492
0.000231036
0.000234773
0.000239333
0.000244752
0.000237854
0.000223828
0.000138642
0.000180605
0.000206482
0.000214881
0.000218844
0.000223671
0.00022835
0.000234052
0.000228973
0.000215719
0.000113182
0.000159097
0.000190418
0.000201523
0.00020637
0.00021194
0.000218377
0.000226021
0.000223263
0.000211179
8.04758e-05
0.000133698
0.000172898
0.000188872
0.000196296
0.000202991
0.000209428
0.000218267
0.000217775
0.00020772
4.27381e-05
0.000101456
0.000151463
0.000173108
0.000183163
0.000191836
0.000201183
0.000213253
0.000215411
0.000208171
3.25138e-05
6.68582e-05
0.000122436
0.000155626
0.000171749
0.000181961
0.000191107
0.000206216
0.000213034
0.000209824
4.50749e-05
6.17016e-05
8.16792e-05
0.000113912
0.000148763
0.000168617
0.000180938
0.000200527
0.000212927
0.000216322
6.91409e-05
8.72918e-05
9.11655e-05
9.56618e-05
0.000102638
0.000128802
0.000158665
0.000184833
0.000209905
0.000225704
0.114783
0.0314708
0.0290928
0.0290703
0.0290696
0.0290697
0.0290702
0.0290926
0.0314767
0.114824
0.039865
0.00456896
0.00269522
0.00266301
0.00266301
0.00266121
0.00266353
0.00269423
0.00455559
0.0399991
0.0169787
0.00207195
0.000932657
0.000904955
0.000903806
0.000929392
0.000921081
0.000950008
0.00207265
0.0170585
0.00856405
0.00148881
0.000564475
0.000549495
0.000577266
0.00055281
0.000550578
0.000570654
0.00148056
0.00862457
0.00492094
0.00101909
0.000376474
0.000372162
0.000349313
0.000374625
0.000374471
0.000372592
0.00108004
0.0049711
0.00312661
0.000754076
0.000251078
0.000237602
0.000186267
0.000247319
0.000235097
0.000260151
0.000841598
0.00315984
0.00214855
0.000588524
0.000174519
0.00014717
9.67725e-05
0.000146423
0.000145868
0.000169066
0.000639377
0.00217305
0.00156816
0.000473669
0.000114156
9.71081e-05
6.54523e-05
9.13578e-05
9.0822e-05
9.5642e-05
0.000488506
0.00158715
0.00120075
0.000391049
6.83948e-05
5.82894e-05
4.79857e-05
5.76736e-05
5.92498e-05
6.96931e-05
0.000388717
0.00121643
0.000953034
0.000314972
4.20464e-05
5.76756e-05
3.5607e-05
4.23611e-05
4.38775e-05
5.50978e-05
0.000305808
0.000966647
0.000779127
0.000250178
3.85744e-05
4.9543e-05
2.55637e-05
3.58599e-05
2.90861e-05
4.50219e-05
0.000249377
0.000792553
0.000650371
0.00023547
3.05388e-05
3.65321e-05
2.71694e-05
3.12919e-05
3.39256e-05
4.0399e-05
0.000218875
0.000664047
0.000554063
0.000214182
2.0768e-05
2.89202e-05
2.27119e-05
2.50272e-05
2.97002e-05
3.07432e-05
0.00019518
0.00056812
0.000479601
0.000187736
2.97785e-05
2.62149e-05
2.34653e-05
2.23241e-05
2.49653e-05
3.04206e-05
0.000175941
0.000494922
0.000421089
0.00017565
2.78759e-05
2.59276e-05
2.13649e-05
2.12338e-05
2.35465e-05
2.32365e-05
0.00015788
0.000438058
0.000373717
0.000153795
2.47789e-05
2.83172e-05
2.21599e-05
2.18877e-05
2.31437e-05
2.14241e-05
0.000140026
0.000393146
0.000334693
0.000145803
2.13319e-05
3.04116e-05
2.3454e-05
2.34265e-05
2.55329e-05
1.99341e-05
0.00012097
0.000356191
0.000301661
0.000134627
2.12931e-05
3.23635e-05
2.56739e-05
2.67409e-05
2.82506e-05
2.04106e-05
0.000106447
0.000326134
0.000273562
0.000137871
2.21234e-05
3.4239e-05
2.75592e-05
3.03891e-05
3.01875e-05
2.17377e-05
9.41491e-05
0.000300105
0.000248665
0.000135455
2.77181e-05
3.60474e-05
3.01493e-05
3.3821e-05
3.16104e-05
2.33344e-05
8.72813e-05
0.000279165
0.000226445
0.000135617
3.17722e-05
3.67735e-05
3.3588e-05
3.67861e-05
3.45209e-05
2.57708e-05
7.9642e-05
0.000260115
0.000205807
0.000139716
4.15791e-05
3.99129e-05
3.83474e-05
4.009e-05
3.79791e-05
2.90836e-05
7.53043e-05
0.000245255
0.000186569
0.000152116
5.02738e-05
4.22782e-05
4.21942e-05
4.31797e-05
4.1181e-05
3.47154e-05
7.03578e-05
0.00023069
0.000167372
0.000158914
6.92382e-05
4.93073e-05
4.7677e-05
4.64441e-05
4.45205e-05
4.00051e-05
6.89609e-05
0.000219866
0.000147558
0.000167861
8.78796e-05
5.56507e-05
5.2328e-05
5.02388e-05
4.91494e-05
4.66225e-05
6.72176e-05
0.00020871
0.000125548
0.000177877
0.000114691
6.97633e-05
5.9417e-05
5.44859e-05
5.39266e-05
5.22834e-05
6.85749e-05
0.000201123
0.000100513
0.00019318
0.000138305
8.30085e-05
6.68293e-05
6.15982e-05
6.12987e-05
6.09767e-05
7.18177e-05
0.000192035
7.35427e-05
0.000212393
0.000174323
0.000110621
7.99843e-05
6.91265e-05
6.92659e-05
6.86501e-05
8.08029e-05
0.000187211
5.96131e-05
0.000240003
0.000216678
0.000143082
0.000103629
8.57929e-05
8.33315e-05
8.53033e-05
9.21903e-05
0.000175828
6.29476e-05
0.000265777
0.000271869
0.000213381
0.000138762
0.000106118
0.000100224
0.000102383
0.000134739
0.000182345
0.114478
0.0290934
0.0265086
0.0264927
0.0264909
0.0264911
0.0264956
0.0265237
0.0290935
0.114563
0.0394693
0.00269636
0.00193879
0.0019191
0.00191052
0.00190477
0.00185673
0.00160305
0.00268882
0.0396279
0.016749
0.000939077
0.000259916
0.000260389
0.000248579
0.000249897
0.000243916
0.000213618
0.000920563
0.016833
0.00844484
0.000567307
4.38735e-06
2.31698e-06
1.56044e-06
3.7673e-06
1.29875e-05
3.04769e-06
0.000559899
0.00850842
0.00487313
0.00038046
7.36759e-07
5.09811e-09
8.83341e-08
4.77852e-08
1.38891e-06
1.77426e-07
0.000373285
0.00491751
0.00311726
0.000251965
8.88258e-07
1.71592e-08
1.98441e-07
2.05573e-08
3.45968e-07
1.88081e-07
0.000247592
0.00314556
0.00215613
0.000176894
6.20882e-07
8.9516e-08
2.46203e-07
2.22862e-08
1.78647e-07
1.21404e-07
0.000170179
0.00217557
0.0015832
0.000118201
4.98108e-07
2.00975e-07
7.53531e-08
3.90389e-08
1.0641e-07
8.51312e-08
0.000110665
0.00159839
0.00121706
6.79199e-05
3.26173e-07
1.70883e-07
8.84452e-08
4.38181e-08
8.96207e-08
7.92397e-08
6.72246e-05
0.00122954
0.000970444
6.19886e-05
3.70367e-07
1.35023e-07
8.07814e-08
6.67826e-08
1.37597e-07
8.06944e-08
3.97908e-05
0.00098069
0.000796758
5.38902e-05
2.53432e-07
1.62402e-07
5.63258e-08
4.56956e-08
9.0056e-08
8.79937e-08
3.74387e-05
0.000805549
0.000669485
4.8758e-05
2.4585e-07
1.65824e-07
5.96438e-08
5.49202e-08
7.72981e-08
8.1077e-08
3.37259e-05
0.000677798
0.000573304
4.73219e-05
2.66714e-07
2.12482e-07
6.33786e-08
5.89451e-08
9.86667e-08
1.41532e-07
3.00894e-05
0.00058163
0.000498698
4.501e-05
3.42902e-07
2.02043e-07
8.45473e-08
6.6788e-08
1.03191e-07
1.1711e-07
2.84199e-05
0.000507655
0.000439684
4.35761e-05
4.49051e-07
1.98977e-07
8.02175e-08
8.70362e-08
1.61675e-07
9.25956e-08
2.06391e-05
0.00044901
0.000391921
4.12221e-05
5.77347e-07
2.36464e-07
1.13246e-07
1.03672e-07
1.75683e-07
1.12629e-07
2.23813e-05
0.000402427
0.0003524
3.76213e-05
6.21531e-07
3.07734e-07
1.8298e-07
1.24793e-07
2.18769e-07
1.1651e-07
1.85284e-05
0.000363655
0.00031911
3.79005e-05
5.95977e-07
3.96158e-07
2.56302e-07
2.12849e-07
2.27452e-07
1.28031e-07
1.46131e-05
0.000332385
0.00029051
4.04771e-05
1.39733e-06
5.37091e-07
4.2824e-07
2.70179e-07
3.82903e-07
1.65126e-07
1.75549e-05
0.000304873
0.000265324
4.70995e-05
1.56197e-06
7.77371e-07
6.31453e-07
4.82531e-07
4.98436e-07
2.23744e-07
1.74811e-05
0.00028307
0.000242879
5.59708e-05
2.69146e-06
1.11715e-06
9.43388e-07
7.28134e-07
8.30475e-07
3.88351e-07
1.56545e-05
0.000262248
0.000222042
6.61598e-05
4.42789e-06
1.44261e-06
1.27599e-06
1.10653e-06
1.32293e-06
7.34275e-07
1.46299e-05
0.000246541
0.000202724
8.23849e-05
8.26913e-06
2.1498e-06
1.76646e-06
1.50049e-06
1.8139e-06
1.32015e-06
1.42074e-05
0.000229813
0.000183866
9.49438e-05
1.37982e-05
3.08012e-06
2.18393e-06
2.00621e-06
2.38509e-06
1.86066e-06
1.40584e-05
0.000218053
0.000165613
0.000117903
2.10733e-05
5.02089e-06
2.98281e-06
2.52261e-06
2.9154e-06
2.66268e-06
1.36976e-05
0.000203724
0.000147161
0.000132681
3.40529e-05
7.69398e-06
3.89467e-06
3.21831e-06
3.60347e-06
3.3428e-06
1.30301e-05
0.000193969
0.000128189
0.000145892
5.87792e-05
1.4031e-05
5.60442e-06
4.16548e-06
4.4296e-06
4.43969e-06
1.26643e-05
0.000179814
0.000108157
0.000160269
8.49281e-05
2.26859e-05
8.82651e-06
5.64e-06
5.6125e-06
5.49341e-06
1.26159e-05
0.000170186
8.87318e-05
0.000179286
0.000119902
4.06217e-05
1.44748e-05
8.10958e-06
7.56086e-06
7.68009e-06
1.36654e-05
0.000149144
7.48184e-05
0.000199915
0.000161037
7.05051e-05
2.87485e-05
1.40207e-05
1.03032e-05
1.03337e-05
1.72108e-05
0.000137881
0.114404
0.029071
0.0264924
0.0264678
0.0264653
0.0264646
0.0264681
0.026488
0.0290709
0.114493
0.039285
0.00266286
0.00192498
0.00206788
0.00207051
0.00208358
0.00206325
0.00201036
0.00265702
0.0394421
0.0166011
0.000925718
0.000254874
0.000239477
0.000214395
0.000240942
0.000220235
0.000238214
0.000895278
0.0166812
0.00834859
0.000551681
2.65751e-06
1.98209e-06
9.39141e-07
1.94665e-06
9.7131e-07
2.71983e-06
0.00054544
0.00840823
0.00481314
0.000377681
1.94972e-08
1.66642e-10
1.22693e-11
8.82387e-11
9.68968e-12
1.06758e-07
0.000354549
0.00485397
0.00307939
0.000249747
1.58019e-08
3.44279e-14
3.94392e-13
1e-15
7.11258e-13
3.16928e-07
0.000265168
0.00310665
0.00213076
0.000147769
2.05296e-08
1.98962e-12
1.06925e-15
1.22578e-12
1.16248e-12
1.17182e-07
0.000170465
0.00215068
0.00156529
9.38298e-05
4.05892e-08
2.26935e-11
1.09651e-13
5.53282e-12
4.46554e-12
5.30627e-08
0.00010252
0.00158064
0.00120405
5.90609e-05
4.33085e-08
3.00312e-11
1.47559e-11
1.07804e-11
6.32993e-12
4.37171e-08
5.89196e-05
0.00121692
0.000960511
4.64871e-05
7.95725e-08
4.83865e-11
9.65182e-12
2.20045e-11
1.73019e-11
6.13993e-08
5.31502e-05
0.000972112
0.000788523
3.49698e-05
6.10983e-08
4.88649e-11
1.05334e-11
1.89653e-11
1.27721e-11
6.13943e-08
4.49764e-05
0.000800082
0.000662807
3.10707e-05
8.47813e-08
2.20748e-10
2.53551e-11
7.94405e-11
3.19468e-11
6.2021e-08
3.83655e-05
0.000674906
0.00056778
2.72658e-05
1.10052e-07
3.41629e-10
2.5068e-11
4.85886e-11
8.61292e-11
5.17186e-08
3.53723e-05
0.000580868
0.000494172
2.75355e-05
1.82165e-07
4.61514e-10
4.01716e-11
5.8738e-11
1.50333e-10
4.94326e-08
3.25218e-05
0.000508695
0.000435648
2.88536e-05
2.73397e-07
2.86823e-09
7.62572e-11
8.34647e-11
2.326e-10
5.55444e-08
2.79937e-05
0.000451241
0.00038821
3.31696e-05
3.82395e-07
3.13558e-09
1.19543e-10
1.39297e-10
4.5077e-10
1.07557e-07
2.3108e-05
0.000405333
0.000348941
4.11527e-05
7.81998e-07
1.11571e-08
3.76994e-10
3.1076e-10
1.08974e-09
1.68804e-07
2.34449e-05
0.00036697
0.000315901
4.89313e-05
1.23555e-06
1.70055e-08
1.36468e-09
6.78394e-10
1.95553e-09
2.18237e-07
2.40833e-05
0.000336107
0.000287583
5.73659e-05
2.44879e-06
4.45003e-08
1.8288e-09
9.31325e-10
2.40647e-09
2.63727e-07
2.4771e-05
0.000308868
0.000262771
6.48277e-05
3.90833e-06
1.18843e-07
5.77137e-09
1.73975e-09
3.45306e-09
2.82525e-07
2.47401e-05
0.000287435
0.000240644
7.34898e-05
5.89765e-06
2.51014e-07
1.01239e-08
3.70946e-09
6.59752e-09
3.36325e-07
2.43628e-05
0.000266816
0.000220272
8.22014e-05
8.6537e-06
5.20985e-07
2.98787e-08
8.02107e-09
1.08005e-08
3.22324e-07
2.36885e-05
0.000251584
0.000201382
9.46617e-05
1.23655e-05
9.45701e-07
5.98631e-08
1.42429e-08
1.90042e-08
3.32425e-07
2.28563e-05
0.000234941
0.000183139
0.000104969
1.76252e-05
1.82407e-06
1.41928e-07
2.78733e-08
2.98401e-08
3.83305e-07
2.29632e-05
0.000224014
0.000165514
0.000122112
2.36007e-05
3.15019e-06
3.25374e-07
4.69106e-08
4.32644e-08
3.33864e-07
2.22445e-05
0.000209316
0.000147979
0.000133208
3.58232e-05
5.13384e-06
6.51994e-07
1.18143e-07
7.29848e-08
3.37759e-07
2.03939e-05
0.000200505
0.000130225
0.00014202
5.3683e-05
9.59503e-06
1.41621e-06
2.15685e-07
9.38776e-08
3.07219e-07
1.74008e-05
0.000185339
0.000112118
0.000151068
7.56129e-05
1.55423e-05
2.84427e-06
5.82686e-07
2.28125e-07
3.16617e-07
1.51195e-05
0.000176008
9.35627e-05
0.000161712
9.81645e-05
2.76512e-05
5.86491e-06
1.17882e-06
3.21959e-07
4.03246e-07
1.09614e-05
0.000151112
7.57778e-05
0.000173261
0.000125903
4.18303e-05
1.20633e-05
3.22738e-06
9.77997e-07
5.5931e-07
9.86689e-06
0.000139668
0.114386
0.0290703
0.0264877
0.0264651
0.0264655
0.0264655
0.0264669
0.0264917
0.0290702
0.114475
0.0392288
0.00266207
0.00197681
0.00207447
0.00202054
0.0020221
0.00204136
0.00188717
0.00265555
0.0393854
0.0165459
0.000917354
0.000241206
0.000219094
0.000229494
0.000224446
0.000224337
0.0002512
0.000913566
0.0166261
0.00830692
0.000555116
2.95604e-06
1.36226e-06
2.01602e-06
2.14052e-06
1.42677e-06
4.63929e-06
0.000553409
0.00836599
0.00478254
0.000372048
1.96822e-07
4.56381e-12
6.63855e-11
9.37507e-11
6.28562e-12
1.77036e-07
0.000363056
0.00482329
0.0030564
0.000241963
4.29803e-07
3.09795e-14
4.55672e-14
3.58872e-15
6.99985e-13
3.24966e-07
0.000260221
0.00308327
0.00211318
0.000144436
4.92835e-07
3.87992e-11
4.65238e-15
1e-15
1.0547e-11
1.23682e-07
0.000168209
0.00213288
0.00155212
0.000112381
4.77555e-07
3.39382e-13
1e-15
1e-15
9.87159e-12
6.39538e-08
9.83836e-05
0.00156672
0.00119376
8.72342e-05
5.92973e-07
1.15587e-11
2.14314e-15
1e-15
1.54615e-11
5.57026e-08
6.26983e-05
0.00120587
0.000952231
7.08457e-05
4.69385e-07
1.73998e-11
3.0753e-14
1e-15
2.18774e-11
5.60454e-08
4.48515e-05
0.000963333
0.000781701
5.10492e-05
4.98163e-07
6.81476e-10
2.71462e-14
1e-15
1.27637e-11
2.93388e-08
2.71425e-05
0.000792824
0.000657086
4.32544e-05
4.61981e-07
2.65022e-09
2.70521e-14
1.64097e-15
1.49115e-11
3.18157e-08
2.93308e-05
0.000669117
0.000562999
3.90999e-05
4.41328e-07
3.09136e-09
6.2338e-14
7.69417e-15
1.6878e-11
3.48625e-08
2.44479e-05
0.000575838
0.000490116
3.96203e-05
5.05149e-07
4.53437e-09
1.50703e-12
3.56063e-14
2.03427e-10
5.08078e-08
2.152e-05
0.000503955
0.000432353
4.227e-05
8.02434e-07
7.90456e-09
3.53672e-12
1.3536e-13
1.99487e-10
5.86565e-08
1.82408e-05
0.000446761
0.000385547
4.44801e-05
1.05526e-06
1.37981e-08
1.18629e-09
3.45966e-13
2.93718e-10
7.77655e-08
1.68224e-05
0.000401135
0.000346812
4.92055e-05
1.75708e-06
2.89408e-08
3.13911e-10
5.81199e-12
4.30038e-10
8.02556e-08
1.71571e-05
0.000363071
0.000314182
5.47881e-05
2.30121e-06
5.0843e-08
3.62388e-10
1.42603e-11
6.19561e-10
1.07478e-07
1.75443e-05
0.000332429
0.000286215
6.18547e-05
3.58645e-06
1.04032e-07
2.6624e-09
6.88917e-12
9.43818e-10
1.10357e-07
1.8348e-05
0.000305332
0.000261682
6.89407e-05
4.69826e-06
1.8029e-07
3.53172e-09
1.75778e-10
1.43764e-09
2.16137e-07
1.92142e-05
0.000284045
0.00023985
7.83101e-05
6.97256e-06
3.25815e-07
1.51284e-08
2.27029e-10
2.70278e-09
1.95248e-07
1.92305e-05
0.000263504
0.000219788
8.66135e-05
9.38746e-06
6.02397e-07
2.40314e-08
1.83984e-09
3.0447e-09
2.55343e-07
1.89063e-05
0.000248456
0.000201215
9.89317e-05
1.31306e-05
9.85607e-07
7.61775e-08
2.61439e-09
4.97585e-09
2.28831e-07
1.85065e-05
0.000231723
0.000183247
0.000107873
1.8092e-05
1.8295e-06
1.23619e-07
1.29929e-08
5.08493e-09
2.22221e-07
1.72151e-05
0.00022079
0.000165848
0.000123585
2.37618e-05
2.96637e-06
3.42279e-07
2.04238e-08
9.37507e-09
2.5066e-07
1.66399e-05
0.00020611
0.000148317
0.000133277
3.54906e-05
5.06305e-06
5.55251e-07
8.10395e-08
5.35573e-09
1.76105e-07
1.2796e-05
0.000196854
0.00013059
0.000142366
5.34734e-05
9.11441e-06
1.39207e-06
1.44804e-07
3.53305e-08
1.60307e-07
1.12029e-05
0.000182401
0.000111977
0.000149823
7.43521e-05
1.51444e-05
2.46916e-06
4.79958e-07
4.72181e-08
1.96307e-07
1.0856e-05
0.000172117
9.32105e-05
0.000162568
9.8389e-05
2.66027e-05
5.69994e-06
9.88039e-07
2.17864e-07
2.43706e-07
9.2873e-06
0.00014931
7.3648e-05
0.000170054
0.000124346
4.16675e-05
1.09561e-05
2.83952e-06
5.65882e-07
2.92934e-07
8.96557e-06
0.00013423
0.114386
0.0290703
0.0264877
0.0264605
0.0264588
0.0264617
0.0264657
0.0264835
0.0290703
0.114475
0.0392287
0.00266148
0.00197554
0.00215551
0.00214364
0.00209193
0.00206439
0.00205339
0.00265413
0.0393852
0.0165462
0.000927358
0.000243729
0.000205606
0.000202718
0.000225239
0.000225895
0.00023742
0.000909318
0.0166256
0.00830693
0.000555379
2.89478e-06
1.17615e-06
6.97159e-07
1.62947e-06
2.07841e-06
3.94141e-06
0.000553643
0.00836552
0.00478268
0.000377409
1.63784e-07
2.23496e-11
3.90809e-12
5.02629e-11
1.146e-11
1.59046e-07
0.000360372
0.00482273
0.00305632
0.000239701
3.59652e-07
1.62953e-14
1e-15
3.33671e-14
1.11638e-14
3.27819e-07
0.000261507
0.00308352
0.00211337
0.000148512
3.09487e-07
2.27588e-11
1e-15
1e-15
1.29573e-11
2.53684e-07
0.00016693
0.00213302
0.00155178
9.45965e-05
3.29497e-07
1.80486e-10
1e-15
1e-15
1.2894e-10
1.71355e-07
0.000101905
0.00156687
0.0011933
5.88727e-05
2.04977e-07
1.65629e-10
6.16356e-15
1.94424e-14
1.07334e-10
1.27694e-07
5.98648e-05
0.00120606
0.000951813
4.92833e-05
1.193e-07
7.90393e-11
9.28691e-15
2.32291e-13
1.03789e-10
1.20452e-07
5.32113e-05
0.000963496
0.0007816
4.34615e-05
1.33338e-07
2.09415e-10
7.53848e-14
8.54506e-12
4.48264e-11
7.84663e-08
4.45928e-05
0.000793085
0.000656926
3.53053e-05
2.045e-07
2.78017e-10
2.68791e-13
8.74254e-13
8.34939e-11
8.379e-08
3.96166e-05
0.00066941
0.000562855
2.89656e-05
2.63524e-07
4.42809e-10
6.10326e-13
1.59749e-12
2.0509e-10
6.92953e-08
3.47712e-05
0.000576089
0.000490095
3.27072e-05
2.3643e-07
1.64652e-09
5.45188e-12
2.58461e-12
3.22647e-10
6.657e-08
2.60664e-05
0.000504088
0.000432233
3.30429e-05
4.82156e-07
2.74375e-09
2.94534e-11
6.77616e-12
5.66966e-10
8.57202e-08
2.14731e-05
0.000446761
0.000385291
3.78391e-05
5.65476e-07
3.44071e-09
6.77569e-10
1.41024e-11
9.95787e-10
1.39085e-07
2.16182e-05
0.000401017
0.000346577
4.53143e-05
9.96279e-07
1.22752e-08
2.8826e-10
2.9471e-11
1.86095e-09
2.85001e-07
2.58188e-05
0.000362943
0.00031397
5.23202e-05
1.46354e-06
2.12504e-08
2.5683e-09
6.1356e-11
2.82118e-09
4.10726e-07
2.71842e-05
0.000332386
0.000286022
6.07868e-05
2.7906e-06
5.00949e-08
1.40524e-09
1.18455e-10
3.70404e-09
5.23622e-07
2.91077e-05
0.000305509
0.000261504
6.74779e-05
4.04114e-06
1.24618e-07
1.69745e-09
2.12209e-10
4.60747e-09
5.83222e-07
2.81598e-05
0.000284496
0.000239661
7.69548e-05
6.29916e-06
2.49028e-07
1.0141e-08
5.14513e-10
5.12266e-09
5.81546e-07
2.81385e-05
0.000264198
0.000219592
8.47207e-05
9.04227e-06
5.42501e-07
1.90811e-08
1.13434e-09
5.91986e-09
6.20742e-07
2.79128e-05
0.000249521
0.000200959
9.692e-05
1.25571e-05
9.40212e-07
6.52132e-08
1.88927e-09
6.1893e-09
5.37211e-07
2.58866e-05
0.00023312
0.000182956
0.000106519
1.7922e-05
1.76447e-06
1.1452e-07
1.21946e-08
7.2699e-09
4.925e-07
2.3329e-05
0.000222499
0.000165548
0.000122965
2.37707e-05
3.03713e-06
3.11958e-07
1.98624e-08
8.42735e-09
4.36545e-07
2.18518e-05
0.000207815
0.000148059
0.000133083
3.58247e-05
5.05141e-06
5.61401e-07
7.87192e-08
1.65765e-08
3.73732e-07
1.5918e-05
0.000199214
0.000130386
0.000142211
5.38852e-05
9.31334e-06
1.32253e-06
1.43315e-07
2.16e-08
3.18203e-07
1.63175e-05
0.000184548
0.00011195
0.00014926
7.42477e-05
1.56616e-05
2.62748e-06
4.74597e-07
1.04814e-07
2.86903e-07
1.50171e-05
0.000175418
9.34849e-05
0.000161884
9.80466e-05
2.62992e-05
5.58675e-06
1.00886e-06
1.74098e-07
3.25525e-07
1.12303e-05
0.000151959
7.41411e-05
0.000167615
0.000122328
4.19737e-05
1.11185e-05
2.77172e-06
7.21796e-07
4.14527e-07
9.82706e-06
0.00013511
0.114405
0.0290709
0.0264835
0.0264669
0.0264654
0.0264671
0.0264645
0.0264873
0.029071
0.114493
0.0392855
0.00266373
0.00209786
0.00208555
0.00206953
0.0020359
0.00212705
0.00202404
0.00265494
0.0394414
0.0166005
0.000915302
0.000236837
0.000218062
0.000219449
0.000236226
0.000210315
0.000255112
0.00091518
0.0166805
0.00834938
0.000574842
2.45789e-06
9.31822e-07
1.00537e-06
2.10983e-06
6.97384e-07
3.41451e-06
0.00054189
0.00840685
0.00481259
0.000348762
1.46742e-07
9.50391e-12
9.8428e-12
4.61034e-11
1.45017e-11
1.50403e-07
0.000377625
0.00485245
0.00307855
0.000215237
7.07992e-07
1.94663e-12
4.73383e-13
9.06604e-15
6.66383e-13
2.28628e-07
0.000245497
0.00310587
0.00213042
0.000130893
2.14035e-07
2.91136e-12
1.0488e-12
1.49908e-13
1.83216e-12
1.80716e-07
0.000146348
0.00214975
0.00156521
8.28664e-05
1.36953e-07
6.63144e-12
3.41583e-13
5.39868e-11
4.91697e-12
5.31124e-08
8.84959e-05
0.00157986
0.00120418
5.83741e-05
8.10429e-08
1.08724e-11
1.07227e-11
7.49429e-11
1.69199e-11
5.18728e-08
5.86007e-05
0.00121636
0.000960669
4.98155e-05
1.07821e-07
4.99443e-11
3.81647e-11
1.68637e-10
2.42313e-11
3.95085e-08
4.18128e-05
0.000971748
0.000788638
4.02508e-05
1.72832e-07
3.13249e-10
8.68956e-11
5.65253e-11
6.4643e-11
3.09723e-08
2.73563e-05
0.000799742
0.000662842
3.72531e-05
2.33182e-07
9.98895e-10
4.68811e-10
3.32593e-10
1.50739e-10
3.86514e-08
2.687e-05
0.000674563
0.000567807
3.37791e-05
3.23156e-07
1.55589e-09
3.21285e-10
2.49819e-10
3.31733e-10
3.14501e-08
2.10924e-05
0.000580536
0.000494161
3.47403e-05
4.58464e-07
5.6246e-09
6.4523e-10
3.93051e-10
6.18691e-10
5.12635e-08
2.41372e-05
0.000508309
0.000435606
3.63331e-05
5.86128e-07
5.35761e-09
2.28151e-09
8.50068e-10
1.16107e-09
1.29166e-07
2.27042e-05
0.000450927
0.000388127
4.18347e-05
9.3733e-07
1.72652e-08
4.35829e-09
2.5443e-09
2.21394e-09
8.79941e-08
2.02757e-05
0.000404983
0.000348891
4.84502e-05
1.30823e-06
2.00103e-08
5.31441e-09
4.2989e-09
4.64308e-09
1.41555e-07
2.15988e-05
0.000366597
0.00031581
5.61541e-05
2.26459e-06
4.67878e-08
7.45194e-09
8.09853e-09
9.25875e-09
2.96799e-07
2.68237e-05
0.000335699
0.000287438
6.38742e-05
3.18406e-06
8.42622e-08
1.08292e-08
1.26492e-08
1.38518e-08
4.43927e-07
2.80348e-05
0.000308541
0.000262575
7.24079e-05
5.05766e-06
1.81819e-07
1.90348e-08
2.05285e-08
2.3348e-08
5.86847e-07
2.79016e-05
0.00028728
0.000240462
8.12163e-05
7.00486e-06
3.22532e-07
3.24844e-08
2.8543e-08
3.43118e-08
5.82643e-07
2.77383e-05
0.000266797
0.000220175
8.98642e-05
9.87549e-06
6.23241e-07
6.59819e-08
4.39685e-08
4.84243e-08
6.03334e-07
2.84463e-05
0.000251876
0.000201328
0.000100796
1.33932e-05
1.03363e-06
1.04566e-07
6.03717e-08
6.53003e-08
6.07429e-07
2.61237e-05
0.000235361
0.000183157
0.000110536
1.83603e-05
1.87061e-06
2.2879e-07
8.63897e-08
8.97414e-08
6.24316e-07
2.49478e-05
0.00022457
0.000165537
0.000125223
2.40112e-05
2.99491e-06
3.92596e-07
1.38229e-07
1.23315e-07
5.40837e-07
1.98945e-05
0.000209627
0.000148048
0.000135107
3.70092e-05
5.03198e-06
8.35685e-07
2.11144e-07
1.64476e-07
5.40263e-07
1.77169e-05
0.000201044
0.000130313
0.000142363
5.33672e-05
9.2483e-06
1.48641e-06
4.20801e-07
2.61368e-07
5.48411e-07
1.74021e-05
0.00018626
0.0001123
0.000150652
7.45861e-05
1.52116e-05
3.02331e-06
6.74646e-07
3.54148e-07
5.97933e-07
1.56959e-05
0.000175974
9.38558e-05
0.000160216
9.58896e-05
2.63807e-05
5.88527e-06
1.54899e-06
6.88628e-07
8.40896e-07
1.14706e-05
0.00015433
7.69032e-05
0.000171531
0.000123291
4.02118e-05
1.0899e-05
3.03164e-06
1.12641e-06
1.03601e-06
1.05873e-05
0.000135071
0.114477
0.0290933
0.0265077
0.0264873
0.0264822
0.026492
0.0264909
0.0265085
0.0290933
0.114563
0.0394737
0.00269392
0.00195492
0.00202489
0.00207847
0.00188164
0.00194897
0.00193335
0.00268757
0.0396293
0.0167501
0.000954106
0.000263214
0.000251499
0.000243322
0.000246256
0.000270183
0.000257332
0.000938769
0.0168315
0.00844508
0.000571407
2.8792e-06
2.91418e-06
2.52468e-06
1.82352e-06
2.6012e-06
6.36813e-06
0.000563189
0.00850492
0.00487305
0.000378469
3.90043e-07
1.42708e-07
1.25457e-07
1.04176e-07
3.70889e-09
1.2671e-06
0.000379586
0.00491365
0.00311751
0.000246997
6.33959e-07
3.15501e-07
3.16782e-07
1.84385e-07
1.70761e-08
5.6639e-07
0.000233785
0.00314456
0.00215667
0.000172476
6.61949e-07
1.13504e-07
1.24894e-07
1.09038e-07
2.98366e-08
2.86306e-07
0.000160942
0.00217496
0.00158349
0.000110927
2.48122e-07
7.61721e-08
5.76158e-08
9.14439e-08
2.54428e-08
1.8352e-07
0.000121089
0.00159792
0.00121766
8.15303e-05
1.76834e-07
6.86438e-08
6.61712e-08
8.88076e-08
4.01478e-08
1.80242e-07
8.2413e-05
0.00122929
0.000970827
6.007e-05
2.01363e-07
4.96555e-08
7.84163e-08
1.31634e-07
3.84497e-08
1.33506e-07
5.22865e-05
0.000980572
0.000796465
4.15396e-05
1.99493e-07
7.02561e-08
7.41225e-08
6.63275e-08
8.08155e-08
1.30165e-07
3.60939e-05
0.000805311
0.000669349
5.03448e-05
3.56156e-07
8.3801e-08
1.00827e-07
1.26191e-07
9.30726e-08
1.39148e-07
2.29792e-05
0.000677458
0.000573392
4.74895e-05
3.06114e-07
8.19742e-08
7.38953e-08
1.07566e-07
7.40764e-08
1.42756e-07
2.43076e-05
0.000581238
0.00049872
4.62397e-05
3.46394e-07
8.20086e-08
1.07769e-07
1.05998e-07
8.46298e-08
1.32169e-07
1.87322e-05
0.000507283
0.000439827
4.53024e-05
4.93701e-07
1.58635e-07
1.4768e-07
1.71093e-07
1.46487e-07
9.68646e-08
1.61257e-05
0.000448721
0.000391813
3.97322e-05
5.6774e-07
1.72329e-07
2.15431e-07
3.22744e-07
2.1301e-07
1.76104e-07
1.58874e-05
0.000402056
0.000352434
4.79772e-05
6.39187e-07
2.90695e-07
2.84063e-07
4.87702e-07
4.06301e-07
1.82699e-07
1.60661e-05
0.000363239
0.000318896
4.59234e-05
1.0809e-06
4.79813e-07
4.86275e-07
7.87024e-07
6.51801e-07
4.25069e-07
1.76323e-05
0.000331903
0.000290137
4.92196e-05
1.45373e-06
7.34861e-07
7.70146e-07
1.13262e-06
1.01546e-06
7.72618e-07
1.8331e-05
0.000304544
0.000264821
5.64431e-05
2.28367e-06
1.0281e-06
1.19549e-06
1.53893e-06
1.5059e-06
1.25945e-06
1.98664e-05
0.00028275
0.00024221
6.60426e-05
4.31647e-06
1.51925e-06
1.67182e-06
1.9804e-06
2.02093e-06
1.85674e-06
2.01324e-05
0.000262276
0.00022132
7.73372e-05
6.58183e-06
2.03882e-06
2.3191e-06
2.50404e-06
2.52133e-06
2.47797e-06
2.11838e-05
0.000246812
0.000201912
9.17628e-05
1.11987e-05
2.91971e-06
2.81393e-06
2.99832e-06
3.12501e-06
3.19674e-06
2.01802e-05
0.000230408
0.000182981
0.000104594
1.61203e-05
4.14909e-06
3.67377e-06
3.63358e-06
3.76369e-06
3.88963e-06
2.06353e-05
0.000219319
0.000164503
0.000124475
2.41378e-05
5.91408e-06
4.49265e-06
4.3168e-06
4.43622e-06
4.65562e-06
1.87126e-05
0.000205001
0.000145599
0.000136919
3.79633e-05
8.86493e-06
5.82995e-06
5.15711e-06
5.27556e-06
5.44643e-06
1.83886e-05
0.000196369
0.000125769
0.00014956
6.11182e-05
1.522e-05
7.93177e-06
6.45462e-06
6.38402e-06
6.59648e-06
1.77272e-05
0.000181604
0.000104576
0.000164492
8.80726e-05
2.39892e-05
1.14068e-05
8.50206e-06
8.05199e-06
7.99564e-06
1.74969e-05
0.000173693
8.35946e-05
0.000185094
0.000123666
4.1354e-05
1.71721e-05
1.13381e-05
1.04813e-05
1.06183e-05
1.83767e-05
0.000151793
7.26845e-05
0.000209342
0.000172075
7.43341e-05
3.28087e-05
1.84781e-05
1.4726e-05
1.47548e-05
2.42294e-05
0.000140479
0.114754
0.0314776
0.0290941
0.0290716
0.0290709
0.0290708
0.0290715
0.0290938
0.031478
0.114836
0.0398721
0.00455866
0.00268829
0.00265624
0.00265523
0.00265691
0.00265642
0.00268876
0.00454544
0.0400222
0.0169772
0.00207568
0.00092549
0.000916233
0.000918719
0.000912187
0.000918142
0.000943549
0.00207433
0.0170732
0.00856271
0.0015218
0.000564922
0.000542856
0.000546601
0.000547853
0.000555288
0.000566933
0.0014837
0.0086374
0.00491897
0.0010256
0.000378035
0.000382535
0.000380221
0.000374147
0.000365421
0.000376964
0.00100645
0.00497669
0.00312671
0.000763851
0.000252021
0.000249211
0.000248732
0.000236088
0.000257097
0.000241585
0.000753279
0.00316384
0.00214887
0.000594924
0.000173659
0.000149285
0.000149759
0.00014649
0.000167076
0.000167897
0.00058924
0.00217353
0.00156815
0.000479563
0.000113403
9.24222e-05
9.08827e-05
9.11333e-05
9.70973e-05
0.000107209
0.000465761
0.00158689
0.00120093
0.000392722
6.25791e-05
6.23621e-05
6.11577e-05
5.91304e-05
6.63525e-05
8.15163e-05
0.000382789
0.00121573
0.000952735
0.000323971
5.0931e-05
3.93765e-05
3.85668e-05
4.33478e-05
4.17715e-05
6.69432e-05
0.000302034
0.000967062
0.000778593
0.00028303