/*--------------------------------*- C++ -*----------------------------------*\
| =========                 |                                                 |
| \\      /  F ield         | OpenFOAM: The Open Source CFD Toolbox           |
|  \\    /   O peration     | Version:  4.1                                   |
|   \\  /    A nd           | Web:      www.OpenFOAM.org                      |
|    \\/     M anipulation  |                                                 |
\*---------------------------------------------------------------------------*/
FoamFile
{
    version     2.0;
    format      ascii;
    class       volScalarField;
    location    "2000";
    object      nut;
}
// * * * * * * * * * * * * * * * * * * * * * * * * * * * * * * * * * * * * * //

dimensions      [0 2 -1 0 0 0 0];

internalField   nonuniform List<scalar> 
12000
(
0.00383629
0.00380412
0.00379906
0.00379784
0.00379754
0.00379754
0.00379785
0.00379905
0.00380364
0.00383578
0.00225814
0.00224191
0.00223075
0.00222555
0.00222396
0.00222396
0.00222557
0.00223089
0.00224212
0.00225868
0.00146107
0.00146316
0.00145322
0.00144678
0.00144439
0.00144444
0.00144684
0.00145332
0.00146315
0.00146119
0.00102846
0.00103923
0.00103198
0.0010261
0.00102361
0.00102358
0.00102615
0.00103206
0.00103911
0.00102856
0.000775164
0.000787858
0.00078403
0.000779221
0.000776754
0.00077681
0.000779326
0.000784167
0.000788146
0.000775419
0.000615986
0.000628113
0.000627191
0.000623363
0.000620973
0.000621183
0.000623498
0.000627408
0.000628353
0.000616433
0.000509567
0.000520808
0.000521753
0.000518716
0.00051649
0.000516705
0.000518879
0.000522078
0.000521121
0.000510281
0.000434581
0.000445077
0.000447222
0.000444804
0.000442787
0.000442949
0.000444967
0.000447561
0.00044542
0.000435574
0.000379462
0.000389618
0.000392301
0.000390304
0.000388544
0.000388662
0.000390513
0.000392739
0.000390053
0.000380754
0.000337443
0.000347277
0.00035042
0.000348848
0.000347273
0.000347372
0.000349065
0.000351007
0.00034775
0.000339061
0.00030453
0.000314197
0.000317716
0.000316361
0.000314947
0.000315071
0.000316584
0.000318332
0.000314846
0.000306564
0.000278063
0.000287288
0.00029142
0.000290303
0.000289122
0.000289255
0.000290651
0.000292148
0.000288138
0.000280575
0.000256314
0.000265424
0.000269878
0.000269018
0.000268006
0.000268177
0.00026946
0.000270753
0.000266429
0.000259392
0.000238157
0.000247255
0.000252057
0.000251361
0.000250541
0.000250748
0.000251911
0.000253091
0.000248524
0.000241895
0.000222768
0.000232039
0.000237024
0.000236503
0.000235836
0.000236083
0.000237168
0.000238263
0.000233682
0.000227302
0.000209497
0.000219018
0.00022419
0.000223827
0.000223347
0.00022368
0.000224688
0.000225734
0.000221195
0.000215006
0.000197857
0.000207746
0.000213103
0.000212925
0.000212607
0.000212987
0.000213961
0.000215042
0.000210623
0.000204596
0.000187447
0.000197792
0.000203428
0.000203462
0.000203331
0.000203809
0.000204762
0.000205824
0.000201529
0.000195685
0.000177952
0.000188972
0.000194855
0.000195155
0.000195181
0.000195703
0.000196744
0.000197899
0.000193816
0.000188132
0.000169049
0.000180888
0.000187154
0.000187804
0.000188065
0.000188768
0.000189824
0.000191033
0.000187137
0.000181604
0.000160455
0.000173347
0.000180161
0.000181209
0.000181619
0.00018246
0.00018369
0.000185168
0.000181639
0.000176217
0.000151787
0.000166067
0.00017364
0.000175251
0.000175984
0.000177155
0.000178445
0.000179983
0.000176837
0.000171536
0.000142635
0.000158751
0.000167472
0.000169727
0.000170669
0.000172043
0.000173707
0.000175662
0.000173169
0.000167986
0.000132209
0.000150897
0.000161345
0.000164594
0.000166105
0.000167927
0.000169674
0.000171779
0.000169905
0.000164914
0.000119455
0.000141627
0.000154942
0.000159396
0.000161301
0.000163464
0.000165927
0.000168806
0.000167773
0.00016317
0.000100727
0.000129831
0.000147642
0.000154312
0.000157315
0.000159975
0.000162492
0.000165886
0.000165698
0.000161828
7.34044e-05
0.000113097
0.000138187
0.000147732
0.000151961
0.000155518
0.000159261
0.000163969
0.000164797
0.000162003
6.40248e-05
9.18104e-05
0.000124242
0.000140073
0.000147151
0.000151462
0.000155222
0.000161241
0.000163885
0.000162645
7.53845e-05
8.81988e-05
0.000101478
0.000119839
0.00013695
0.000145803
0.000151036
0.000159001
0.000163844
0.000165145
9.33646e-05
0.000104906
0.000107209
0.000109821
0.000113755
0.000127431
0.000141434
0.000152653
0.000162677
0.000168688
0.00380411
0.000112824
9.66432e-05
9.6544e-05
9.65505e-05
9.65506e-05
9.65438e-05
9.66416e-05
0.00011281
0.00380479
0.00224187
1.53206e-05
5.65494e-06
5.58165e-06
5.5876e-06
5.58237e-06
5.58274e-06
5.65641e-06
1.51903e-05
0.00224564
0.00146307
8.08588e-06
1.7102e-06
1.63181e-06
1.63274e-06
1.72665e-06
1.69545e-06
1.78567e-06
8.06413e-06
0.00146651
0.00103909
9.89696e-06
1.43721e-06
1.38122e-06
1.51413e-06
1.41037e-06
1.39594e-06
1.5017e-06
9.59722e-06
0.00104276
0.000787659
1.09572e-05
1.42772e-06
1.45457e-06
1.38483e-06
1.48955e-06
1.47726e-06
1.48144e-06
1.17945e-05
0.000791664
0.000627844
1.38532e-05
1.62277e-06
1.34137e-06
6.05124e-07
1.47687e-06
1.33853e-06
1.64859e-06
1.62295e-05
0.000631171
0.00052046
1.87488e-05
1.02625e-06
1.1512e-06
3.0888e-07
1.16449e-06
1.16865e-06
1.57349e-06
2.07028e-05
0.000523419
0.000444641
2.61791e-05
8.11614e-07
1.10967e-06
3.34237e-07
1.01053e-06
1.01795e-06
1.12963e-06
2.60068e-05
0.000447326
0.000389082
3.68481e-05
6.80152e-07
8.80494e-07
4.02609e-07
8.88434e-07
9.6059e-07
1.32753e-06
3.40914e-05
0.000391614
0.000346632
4.63901e-05
5.68832e-07
1.86308e-06
4.93112e-07
1.04082e-06
1.14828e-06
1.81735e-06
4.14848e-05
0.000349099
0.000313414
5.32218e-05
1.05194e-06
2.89634e-06
5.46049e-07
1.58057e-06
1.07949e-06
2.50273e-06
5.06777e-05
0.000316103
0.000286349
7.68858e-05
1.35737e-06
3.19837e-06
1.43581e-06
2.44435e-06
2.98218e-06
4.727e-06
6.54831e-05
0.000289344
0.000264298
9.32911e-05
1.53549e-06
3.83448e-06
1.37872e-06
3.01779e-06
4.3633e-06
3.14612e-06
7.89813e-05
0.00026763
0.000245898
9.76756e-05
3.345e-06
5.48093e-06
2.07335e-06
4.23892e-06
5.31943e-06
5.02107e-06
8.88445e-05
0.000249794
0.00023041
0.000107055
3.83264e-06
8.25821e-06
2.86974e-06
6.08738e-06
7.76251e-06
6.13609e-06
9.26884e-05
0.000235007
0.000217063
0.000100226
4.84011e-06
1.31463e-05
5.67048e-06
8.96955e-06
8.93596e-06
5.57939e-06
9.01924e-05
0.000222634
0.000205418
0.000104262
6.95907e-06
1.86018e-05
9.57669e-06
1.34187e-05
1.36386e-05
5.91221e-06
8.20807e-05
0.000211912
0.000195018
0.000101432
7.29096e-06
2.35906e-05
1.58371e-05
1.82531e-05
1.82511e-05
8.56399e-06
7.59953e-05
0.000202774
0.000185713
0.00011525
8.87879e-06
2.81939e-05
1.89931e-05
2.54022e-05
2.28431e-05
1.3741e-05
7.08722e-05
0.000194514
0.00017706
0.000119828
1.73766e-05
3.29723e-05
2.50794e-05
3.30892e-05
2.73301e-05
1.63386e-05
7.05363e-05
0.000187605
0.000168965
0.000121217
2.59029e-05
3.51351e-05
3.29319e-05
3.99605e-05
3.29927e-05
2.13484e-05
6.77584e-05
0.000181091
0.000161081
0.000128182
4.24454e-05
4.19773e-05
4.27376e-05
4.69925e-05
4.01994e-05
2.84195e-05
6.82984e-05
0.000175842
0.000153368
0.00014944
5.62725e-05
4.66741e-05
5.06633e-05
5.31033e-05
4.68349e-05
3.95847e-05
6.67259e-05
0.000170541
0.000145263
0.000155817
8.90946e-05
5.98869e-05
6.01603e-05
5.87121e-05
5.26742e-05
4.99969e-05
7.0532e-05
0.000166492
0.000136394
0.000167931
0.000106602
6.94275e-05
6.7644e-05
6.41808e-05
6.08384e-05
6.03199e-05
7.06369e-05
0.000162213
0.000125811
0.000179148
0.000139877
9.0139e-05
7.64592e-05
6.94832e-05
6.79706e-05
6.83725e-05
7.84075e-05
0.000159237
0.00011257
0.000191633
0.000153747
0.000104679
8.48006e-05
7.72003e-05
7.61549e-05
7.75008e-05
7.83479e-05
0.000155598
9.62907e-05
0.000207387
0.000191092
0.00013488
9.75227e-05
8.42352e-05
8.46392e-05
8.30754e-05
9.48537e-05
0.000153632
8.66932e-05
0.000217758
0.000210305
0.000161945
0.000123212
0.000100408
9.61596e-05
9.81051e-05
8.34244e-05
0.000148888
8.90849e-05
0.000241089
0.000240382
0.00021509
0.000151581
0.000118355
0.000108039
0.000108143
0.000119134
0.000151622
0.00379906
9.66471e-05
8.14002e-05
8.13472e-05
8.13448e-05
8.1346e-05
8.13554e-05
8.14293e-05
9.66223e-05
0.00380046
0.00223072
5.65962e-06
3.78228e-06
3.76882e-06
3.74607e-06
3.71752e-06
3.51736e-06
2.73118e-06
5.6241e-06
0.00223519
0.00145315
1.73403e-06
1.59066e-07
1.50259e-07
1.35884e-07
1.42431e-07
1.4872e-07
1.12909e-07
1.66547e-06
0.00145679
0.00103183
1.4512e-06
1.76306e-10
1.85203e-10
1.53311e-10
2.663e-10
1.21014e-09
3.46617e-10
1.40733e-06
0.00103571
0.000783824
1.46408e-06
7.53893e-12
1.14829e-12
1.8736e-12
9.91334e-12
1.29989e-11
2.25906e-11
1.41134e-06
0.000787385
0.000626904
1.60115e-06
2.0399e-11
2.3664e-11
3.18459e-11
6.24417e-11
1.72453e-12
1.18329e-10
1.48561e-06
0.000629744
0.000521377
1.15017e-06
2.55432e-11
1.08503e-10
1.00945e-10
1.45823e-10
1.30003e-12
2.96432e-10
1.19429e-06
0.000523722
0.000446768
9.55036e-07
2.97442e-11
4.01834e-10
1.03225e-10
5.80456e-10
1.76793e-12
4.80654e-10
9.65871e-07
0.000448906
0.000391715
7.37325e-07
4.22013e-11
4.21938e-10
5.9626e-10
1.07184e-09
7.17385e-12
8.49847e-10
8.16701e-07
0.000393719
0.000349784
1.31635e-06
8.73911e-11
3.99625e-10
1.14085e-09
1.86311e-09
4.17494e-11
1.17867e-09
6.30503e-07
0.000351625
0.000316941
2.48727e-06
1.17503e-10
1.1754e-09
1.42202e-09
2.39532e-09
5.85292e-11
2.07211e-09
1.21329e-06
0.000318684
0.000290526
2.38832e-06
3.18484e-10
1.34453e-09
2.16171e-09
4.42611e-09
1.26123e-10
3.77719e-09
2.08059e-06
0.000292324
0.000268848
4.23085e-06
1.03427e-09
3.11133e-09
3.51032e-09
7.9051e-09
5.14058e-10
7.34496e-09
3.3507e-06
0.000270793
0.000250746
5.32642e-06
2.92101e-09
3.97045e-09
6.37663e-09
1.27526e-08
1.39871e-09
8.59947e-09
5.67971e-06
0.000252987
0.000235442
8.10052e-06
9.25431e-09
5.6589e-09
6.54982e-09
2.26533e-08
4.21527e-09
8.04267e-09
3.18708e-06
0.000237926
0.000222287
1.45014e-05
2.17094e-08
1.08842e-08
1.57557e-08
2.93745e-08
8.74184e-09
1.53764e-08
4.67819e-06
0.000225246
0.000210781
1.23967e-05
3.49679e-08
2.33471e-08
4.33542e-08
5.27761e-08
2.87363e-08
2.71772e-08
4.94003e-06
0.000214121
0.000200579
1.46758e-05
4.1446e-08
6.45479e-08
8.71665e-08
1.07006e-07
4.08333e-08
2.65882e-08
5.08795e-06
0.000204708
0.000191379
2.14018e-05
3.53352e-07
1.99467e-07
2.93564e-07
1.85545e-07
1.31215e-07
6.21074e-08
1.01462e-05
0.000196053
0.000182895
3.35769e-05
4.93946e-07
5.37097e-07
6.67338e-07
5.27939e-07
2.91196e-07
1.1731e-07
1.2645e-05
0.000188913
0.000174988
4.69584e-05
1.59704e-06
1.16388e-06
1.392e-06
1.03676e-06
9.46109e-07
3.70896e-07
1.21737e-05
0.000181832
0.000167314
6.21507e-05
3.85981e-06
1.78054e-06
2.23326e-06
1.91986e-06
2.15534e-06
1.16701e-06
1.2212e-05
0.000176303
0.00015987
8.36393e-05
9.67375e-06
3.10382e-06
3.34907e-06
2.91508e-06
3.60842e-06
2.8524e-06
1.30311e-05
0.000170216
0.000152253
9.90399e-05
1.76e-05
4.72914e-06
3.96155e-06
4.22462e-06
5.02678e-06
4.32854e-06
1.39832e-05
0.000165804
0.000144498
0.000129105
2.79455e-05
8.05375e-06
5.39626e-06
5.12565e-06
6.17437e-06
6.13811e-06
1.4874e-05
0.000160264
0.000136211
0.00013976
4.71762e-05
1.23769e-05
6.5418e-06
6.13441e-06
7.21184e-06
7.32481e-06
1.47236e-05
0.00015638
0.000127127
0.000154033
8.1667e-05
2.2663e-05
9.44929e-06
7.45185e-06
8.33209e-06
8.8418e-06
1.59726e-05
0.000150566
0.000116773
0.000168756
0.00010568
3.46122e-05
1.32795e-05
9.16061e-06
9.50052e-06
9.87556e-06
1.6338e-05
0.000146479
0.000105768
0.000184744
0.000144473
5.46378e-05
2.22177e-05
1.26088e-05
1.17903e-05
1.20442e-05
1.91006e-05
0.000137125
9.71222e-05
0.00020105
0.000174218
9.08158e-05
3.74336e-05
1.97579e-05
1.4044e-05
1.44961e-05
1.61811e-05
0.000131846
0.00379783
9.65483e-05
8.13467e-05
8.12714e-05
8.12689e-05
8.12646e-05
8.12731e-05
8.1335e-05
9.65229e-05
0.0037993
0.0022255
5.58119e-06
3.79192e-06
4.49711e-06
4.48779e-06
4.60846e-06
4.44453e-06
4.1401e-06
5.55305e-06
0.00222995
0.00144672
1.70728e-06
1.43719e-07
1.47683e-07
1.46347e-07
1.41601e-07
1.46078e-07
1.42387e-07
1.59744e-06
0.0014502
0.00102594
1.39206e-06
2.68908e-10
2.28382e-10
1.35568e-10
2.26441e-10
1.36196e-10
2.41257e-10
1.35852e-06
0.0010296
0.000778985
1.49277e-06
8.71765e-12
4.08504e-15
4.46373e-16
2.38832e-15
2.7643e-16
1.36754e-12
1.31242e-06
0.000782282
0.000623084
1.48599e-06
4.28945e-11
6.22469e-21
6.33543e-18
9.69067e-23
1.92032e-19
1.97219e-11
1.66397e-06
0.000625836
0.000518301
1.1698e-06
1.18038e-10
8.12227e-16
8.98831e-24
6.38727e-15
3.38944e-17
9.8356e-12
1.5437e-06
0.000520718
0.000444234
1.04869e-06
4.63982e-10
1.04456e-13
4.40944e-17
4.16348e-14
2.4384e-16
7.20177e-12
1.24432e-06
0.000446406
0.000389616
9.08606e-07
8.24952e-10
2.00752e-13
1.8287e-13
1.70548e-13
3.35358e-15
2.09676e-11
9.07692e-07
0.000391693
0.000347989
1.28367e-06
1.52113e-09
3.65151e-13
6.75932e-14
6.88678e-13
2.59695e-14
9.47553e-11
1.60677e-06
0.000350084
0.000315298
1.23579e-06
2.4686e-09
4.05493e-13
1.05429e-13
4.45885e-13
4.77277e-14
2.3025e-10
2.436e-06
0.000317601
0.000289073
1.71838e-06
5.86218e-09
6.61964e-12
1.06053e-12
1.03505e-11
2.7546e-13
3.85621e-10
3.64593e-06
0.0002917
0.00026755
2.72633e-06
1.15254e-08
1.97629e-11
7.95484e-13
2.14968e-12
8.50697e-13
4.85043e-10
5.96665e-06
0.000270616
0.000249605
4.81291e-06
2.7283e-08
3.27029e-11
1.98465e-12
5.43523e-12
4.88662e-12
8.81963e-10
9.16146e-06
0.000253246
0.00023436
8.81232e-06
5.23514e-08
5.1577e-10
8.85404e-12
8.46753e-12
1.05483e-11
1.62863e-09
1.05358e-05
0.000238517
0.000221232
1.24494e-05
1.03312e-07
6.49178e-10
1.83084e-11
3.02928e-11
3.09396e-11
8.408e-09
1.0505e-05
0.000226058
0.000209744
2.28034e-05
3.41686e-07
4.07372e-09
1.67369e-10
2.1786e-10
1.1117e-10
3.60773e-08
1.36825e-05
0.000215095
0.000199567
3.53846e-05
7.66889e-07
8.26841e-09
6.17645e-10
4.36653e-10
5.99269e-10
1.09227e-07
1.75819e-05
0.000205851
0.000190413
4.80664e-05
2.28758e-06
2.25567e-08
8.13384e-10
5.86828e-10
6.33384e-10
2.26652e-07
2.01989e-05
0.000197334
0.000182013
5.8876e-05
4.11753e-06
1.20126e-07
4.8466e-09
1.45615e-09
1.73022e-09
3.169e-07
2.19692e-05
0.000190364
0.000174182
7.0168e-05
6.98366e-06
3.02262e-07
1.27991e-08
4.57679e-09
7.43615e-09
4.83276e-07
2.34435e-05
0.000183409
0.000166646
8.17537e-05
1.05377e-05
7.38753e-07
3.01064e-08
1.75036e-08
1.71722e-08
4.44456e-07
2.40603e-05
0.000178097
0.00015934
9.76832e-05
1.59717e-05
1.35298e-06
9.773e-08
2.14886e-08
4.29526e-08
5.29721e-07
2.46701e-05
0.000172105
0.000151951
0.000109732
2.26331e-05
2.86256e-06
1.67652e-07
6.54207e-08
6.48004e-08
7.10223e-07
2.72369e-05
0.000168055
0.000144455
0.000131811
3.05402e-05
4.62513e-06
5.82866e-07
5.92699e-08
1.07807e-07
5.70131e-07
2.83211e-05
0.000162448
0.000136589
0.000139027
4.97256e-05
7.64513e-06
8.49125e-07
2.62515e-07
1.43166e-07
6.21325e-07
2.62833e-05
0.000158992
0.000128133
0.000149787
6.91561e-05
1.43666e-05
2.43909e-06
2.61881e-07
2.06699e-07
5.74988e-07
2.37763e-05
0.000152862
0.000118892
0.000159762
9.35666e-05
2.1273e-05
3.83709e-06
1.08383e-06
3.84752e-07
5.67272e-07
2.02689e-05
0.000148964
0.000108609
0.000170944
0.000117713
3.87254e-05
9.08205e-06
1.53781e-06
5.48295e-07
8.16897e-07
1.4795e-05
0.000138027
9.77429e-05
0.000182898
0.000145333
5.27863e-05
1.67811e-05
5.04024e-06
1.58562e-06
6.86067e-07
1.05343e-05
0.000132697
0.00379753
9.65546e-05
8.13374e-05
8.1268e-05
8.12716e-05
8.12718e-05
8.12722e-05
8.13471e-05
9.65295e-05
0.003799
0.00222391
5.58715e-06
4.00266e-06
4.51401e-06
4.27449e-06
4.27486e-06
4.35535e-06
3.65168e-06
5.55422e-06
0.00222834
0.00144431
1.68198e-06
1.37958e-07
1.48229e-07
1.41262e-07
1.4061e-07
1.44054e-07
1.4675e-07
1.66727e-06
0.0014478
0.00102337
1.41551e-06
2.47673e-10
1.9232e-10
2.35528e-10
2.38188e-10
2.01733e-10
3.44166e-10
1.40127e-06
0.00102701
0.000776504
1.45572e-06
2.67078e-12
2.08327e-17
8.14283e-16
1.47542e-15
8.84599e-17
1.50125e-12
1.37984e-06
0.000779805
0.000620754
1.40181e-06
2.55151e-11
5.13837e-20
9.75246e-22
1.04233e-22
1.2897e-18
9.19185e-12
1.60791e-06
0.000623476
0.000516158
1.1264e-06
9.68744e-11
3.81421e-16
1.41839e-23
3.51774e-20
1.53256e-15
7.42488e-12
1.5144e-06
0.000518559
0.000442361
1.51662e-06
7.41487e-11
4.31005e-18
3.14133e-24
6.42483e-19
5.99523e-16
5.18921e-12
1.1587e-06
0.000444437
0.000387947
2.0194e-06
1.36233e-10
2.90037e-15
2.45038e-22
1.52137e-18
4.07593e-15
1.17964e-11
1.04113e-06
0.000389911
0.000346486
2.81503e-06
1.36851e-10
2.81451e-15
1.10876e-19
1.84209e-18
1.19614e-14
2.76794e-11
1.16106e-06
0.0003485
0.000313931
3.43325e-06
1.86837e-10
3.16552e-12
1.97813e-19
2.43526e-18
5.59632e-15
1.6891e-11
9.14457e-07
0.000316157
0.000287823
3.20421e-06
2.01605e-10
5.97023e-13
6.40424e-19
7.35703e-18
2.33697e-14
4.70553e-11
2.22241e-06
0.000290446
0.000266421
4.44284e-06
2.98813e-10
1.24457e-12
1.55766e-17
1.09248e-16
4.83056e-14
9.49087e-11
3.0606e-06
0.000269442
0.000248579
8.61564e-06
5.85741e-10
4.12022e-12
5.90014e-15
1.71049e-15
9.95943e-12
2.99146e-10
4.46079e-06
0.000252064
0.000233471
1.49332e-05
2.78755e-09
1.74809e-11
1.56317e-14
8.85718e-15
1.51218e-11
8.26282e-10
5.04542e-06
0.00023733
0.000220472
2.31362e-05
1.14732e-08
7.57832e-11
1.26865e-10
1.18565e-15
3.75016e-11
1.77245e-09
6.26397e-06
0.000224885
0.000209103
2.93114e-05
6.98915e-08
5.28109e-10
2.20234e-12
1.23982e-13
1.08588e-10
3.54131e-09
8.79308e-06
0.000213949
0.000199024
3.92189e-05
2.51715e-07
2.72268e-09
5.48615e-12
6.9669e-13
5.04479e-10
1.40073e-08
1.1166e-05
0.000204722
0.000189959
5.17749e-05
1.13107e-06
1.81528e-08
1.62722e-10
6.35665e-14
1.07487e-09
2.78074e-08
1.39466e-05
0.000196201
0.000181636
6.35827e-05
2.85129e-06
7.4624e-08
3.16875e-10
1.16517e-10
3.10489e-09
1.84616e-07
1.66026e-05
0.000189238
0.000173894
7.70333e-05
6.85334e-06
2.69753e-07
5.21717e-09
2.23195e-11
7.97583e-09
1.53005e-07
1.81091e-05
0.000182267
0.000166462
8.8559e-05
1.06787e-05
7.06784e-07
1.83418e-08
9.78672e-10
8.76413e-09
2.87193e-07
1.88074e-05
0.000176986
0.000159274
0.000104679
1.66986e-05
1.29179e-06
7.52926e-08
1.19551e-09
1.59597e-08
2.56546e-07
1.97433e-05
0.000170922
0.000151996
0.000114324
2.31189e-05
2.6745e-06
1.75125e-07
3.19357e-08
1.50014e-08
2.89946e-07
1.89237e-05
0.000166842
0.0001446
0.000134149
3.04575e-05
4.16576e-06
4.62704e-07
1.50531e-08
2.63656e-08
4.53253e-07
1.96411e-05
0.0001612
0.000136745
0.000139316
4.88142e-05
7.22554e-06
8.37412e-07
1.72545e-07
5.78681e-09
2.37872e-07
1.3473e-05
0.000157538
0.000128312
0.000150299
6.86308e-05
1.3519e-05
2.00146e-06
1.29605e-07
8.26275e-08
3.01504e-07
1.25723e-05
0.000151645
0.000118817
0.000158243
9.19523e-05
2.03376e-05
3.53442e-06
8.90721e-07
5.0952e-08
4.65194e-07
1.33473e-05
0.000147308
0.000108404
0.00017254
0.000118117
3.74644e-05
8.34386e-06
1.10085e-06
3.93953e-07
5.34537e-07
1.313e-05
0.000137202
9.63596e-05
0.000178533
0.000143462
5.22403e-05
1.52319e-05
4.27791e-06
7.35192e-07
3.20777e-07
1.02455e-05
0.000130088
0.00379753
9.65546e-05
8.13373e-05
8.12561e-05
8.12543e-05
8.12612e-05
8.12693e-05
8.1326e-05
9.65291e-05
0.003799
0.00222391
5.58542e-06
4.00096e-06
4.92965e-06
4.87972e-06
4.63212e-06
4.47307e-06
4.34206e-06
5.5563e-06
0.00222834
0.00144432
1.72015e-06
1.39063e-07
1.63466e-07
1.62154e-07
1.52376e-07
1.47748e-07
1.50294e-07
1.65627e-06
0.00144778
0.00102337
1.42453e-06
2.49898e-10
1.51416e-10
1.11307e-10
2.07887e-10
2.33795e-10
3.00638e-10
1.40902e-06
0.00102698
0.000776516
1.50956e-06
2.45232e-12
1.00902e-16
3.08803e-17
5.16042e-16
1.93553e-17
1.21391e-12
1.36876e-06
0.00077976
0.000620746
1.38809e-06
2.10288e-11
7.61802e-21
3.90138e-20
4.14393e-22
6.45355e-21
1.17977e-11
1.63944e-06
0.000623502
0.000516181
1.2017e-06
4.11901e-11
3.66023e-16
1.91184e-19
2.05097e-22
7.91658e-17
1.62789e-11
1.50893e-06
0.000518575
0.000442314
1.0961e-06
8.30791e-11
1.31894e-14
1.80633e-19
1.40137e-19
4.3229e-15
1.61369e-11
1.25756e-06
0.000444458
0.000387873
9.16667e-07
6.37404e-11
2.96424e-14
3.541e-19
8.1668e-21
2.68027e-14
2.59306e-11
9.60968e-07
0.000389942
0.00034641
1.60702e-06
1.25877e-10
1.32617e-13
1.6557e-17
2.31013e-17
7.26023e-15
2.13256e-11
1.65237e-06
0.000348529
0.000313911
1.52307e-06
3.8957e-10
2.8282e-12
1.42567e-15
4.7491e-13
1.58499e-14
1.23743e-11
2.49285e-06
0.000316209
0.000287788
1.47188e-06
2.19714e-09
5.83985e-12
1.07509e-14
1.79191e-15
1.37588e-14
1.83571e-11
3.91315e-06
0.00029051
0.000266387
1.74208e-06
3.57962e-09
1.15897e-11
2.73741e-14
4.19974e-14
5.35678e-13
2.56076e-11
6.92757e-06
0.0002695
0.000248573
5.06268e-06
5.0094e-09
4.02683e-11
1.92919e-13
7.35107e-14
1.16542e-12
3.28675e-11
4.03431e-06
0.000252097
0.000233439
6.06056e-06
2.57573e-08
1.17694e-10
1.49967e-11
2.20053e-12
7.16148e-12
1.04835e-10
4.64615e-06
0.00023733
0.000220399
1.11297e-05
4.18124e-08
1.68909e-10
3.32312e-10
3.03513e-12
3.92185e-11
5.72833e-10
5.73125e-06
0.000224852
0.000209033
2.23291e-05
1.99231e-07
1.51646e-09
3.82987e-11
3.10983e-11
3.25215e-10
4.8125e-09
9.82703e-06
0.000213911
0.000198957
3.62307e-05
6.25433e-07
5.79677e-09
2.10633e-09
3.95012e-11
1.51653e-09
2.29407e-08
1.54764e-05
0.000204709
0.000189895
5.11537e-05
2.33278e-06
2.22616e-08
4.19398e-10
5.81235e-11
4.29389e-09
7.82953e-08
1.98934e-05
0.000196258
0.000181574
6.26622e-05
4.11484e-06
1.16062e-07
1.09378e-09
1.36495e-10
1.02225e-08
2.43849e-07
2.27407e-05
0.000189388
0.000173825
7.64091e-05
7.74161e-06
3.0722e-07
7.51688e-09
9.32541e-10
1.09122e-08
2.34891e-07
2.75742e-05
0.000182507
0.000166388
8.69045e-05
1.14192e-05
8.04929e-07
2.64722e-08
8.54477e-10
1.31955e-08
3.21319e-07
3.09798e-05
0.000177365
0.000159173
0.000102793
1.64824e-05
1.3493e-06
7.77168e-08
7.38917e-09
1.40297e-08
2.9417e-07
2.96401e-05
0.000171437
0.000151875
0.000113468
2.3716e-05
2.73822e-06
1.87138e-07
1.58106e-08
1.80761e-08
3.99701e-07
2.80998e-05
0.000167486
0.00014447
0.00013432
3.106e-05
4.49224e-06
4.12683e-07
3.47808e-08
1.64247e-08
4.53046e-07
2.68025e-05
0.000161865
0.000136625
0.000139722
5.05777e-05
7.4374e-06
9.06792e-07
1.01226e-07
4.5075e-08
4.61355e-07
1.63222e-05
0.00015848
0.000128212
0.000150418
6.95789e-05
1.42373e-05
1.81525e-06
2.29485e-07
2.22898e-08
4.58914e-07
2.09151e-05
0.000152535
0.000118803
0.000157873
9.21542e-05
2.14608e-05
4.01079e-06
6.45541e-07
1.86694e-07
5.44716e-07
1.96302e-05
0.000148714
0.000108564
0.000171771
0.000117351
3.65682e-05
7.88004e-06
1.59968e-06
2.41598e-07
7.79284e-07
1.55521e-05
0.000138413
9.66817e-05
0.000175715
0.000140721
5.32317e-05
1.5645e-05
3.88436e-06
9.34247e-07
4.04219e-07
1.08006e-05
0.000130514
0.00379784
9.65477e-05
8.13234e-05
8.12701e-05
8.12687e-05
8.12724e-05
8.12635e-05
8.13323e-05
9.6523e-05
0.0037993
0.00222552
5.58958e-06
4.54733e-06
4.55629e-06
4.49034e-06
4.34744e-06
4.76977e-06
4.22258e-06
5.54591e-06
0.00222993
0.00144669
1.67897e-06
1.52829e-07
1.50028e-07
1.47812e-07
1.44403e-07
1.56684e-07
1.49473e-07
1.67432e-06
0.00145017
0.00102599
1.52913e-06
1.22566e-10
1.35888e-10
1.47065e-10
2.44859e-10
9.73657e-11
2.79259e-10
1.35101e-06
0.00102951
0.00077894
1.29791e-06
1.18786e-12
3.39081e-16
3.53973e-16
3.24526e-16
2.81947e-16
1.7385e-12
1.50481e-06
0.000782159
0.000622999
1.13145e-06
3.52277e-11
3.03324e-18
1.19837e-18
4.0333e-22
1.75521e-18
9.01557e-12
1.45656e-06
0.000625757
0.000518259
9.50218e-07
1.39491e-11
7.01026e-16
2.47516e-16
1.97047e-17
6.04111e-16
1.35881e-11
1.17129e-06
0.000520606
0.000444223
8.59176e-07
2.18795e-11
4.47161e-15
1.5382e-16
2.53285e-15
7.44436e-15
7.02572e-12
9.62662e-07
0.000446296
0.000389637
9.31349e-07
5.77844e-11
2.42863e-14
9.62026e-15
4.5606e-14
1.72347e-14
2.46261e-11
9.36375e-07
0.000391603
0.000348018
1.61928e-06
3.31189e-10
1.78957e-13
2.46258e-13
2.47085e-13
2.47384e-13
7.5556e-11
1.0438e-06
0.000350019
0.000315321
1.50142e-06
1.58121e-09
1.56278e-12
6.50074e-13
1.08352e-13
1.02294e-12
1.96166e-10
9.40841e-07
0.000317533
0.000289081
1.92427e-06
4.32125e-09
1.76869e-11
2.35026e-11
4.08206e-12
4.63232e-12
6.1729e-10
2.02041e-06
0.000291626
0.000267556
2.72415e-06
1.05351e-08
3.81444e-11
1.53685e-11
6.64628e-12
4.34486e-11
8.0185e-10
1.77039e-06
0.000270538
0.000249602
6.23651e-06
2.55021e-08
3.56704e-10
7.68104e-11
7.57224e-12
1.66998e-10
5.28948e-09
4.00356e-06
0.00025315
0.000234348
8.00602e-06
5.81838e-08
3.47735e-10
1.61687e-09
1.24022e-10
5.24404e-10
2.68713e-08
4.78131e-06
0.000238434
0.000221208
1.5143e-05
2.19297e-07
3.00452e-09
4.86316e-09
1.4333e-09
1.99922e-09
2.28586e-08
5.61114e-06
0.000225961
0.00020973
2.73223e-05
5.31715e-07
5.04037e-09
6.60204e-09
4.88663e-09
6.80904e-09
7.21768e-08
1.02819e-05
0.000214985
0.000199539
4.13192e-05
1.59323e-06
2.82117e-08
9.26961e-09
1.36057e-08
1.79016e-08
3.36616e-07
1.80878e-05
0.000205726
0.000190365
5.46871e-05
2.91942e-06
6.40246e-08
1.64712e-08
2.54179e-08
2.69212e-08
7.46324e-07
2.31631e-05
0.000197229
0.000181945
6.84705e-05
5.56201e-06
2.03083e-07
2.81637e-08
4.58139e-08
5.03453e-08
1.25748e-06
2.63949e-05
0.000190312
0.000174116
8.08798e-05
8.4687e-06
3.97117e-07
6.53195e-08
6.84136e-08
7.43078e-08
1.16784e-06
2.86795e-05
0.000183402
0.000166609
9.26885e-05
1.21074e-05
8.50279e-07
1.11595e-07
1.06861e-07
1.08004e-07
1.24577e-06
3.29761e-05
0.0001782
0.000159319
0.000106182
1.72249e-05
1.42546e-06
1.98125e-07
1.48452e-07
1.41171e-07
1.27805e-06
3.06178e-05
0.000172259
0.000151959
0.000117399
2.30285e-05
2.70754e-06
3.65311e-07
1.75638e-07
2.02803e-07
1.3468e-06
3.05627e-05
0.000168264
0.000144465
0.000134954
3.05764e-05
3.99485e-06
6.80535e-07
3.30774e-07
2.47206e-07
1.04211e-06
2.2297e-05
0.000162569
0.000136621
0.000140947
5.11921e-05
7.14223e-06
1.30551e-06
3.3541e-07
3.49645e-07
1.14593e-06
2.00966e-05
0.000159206
0.000128176
0.000149537
6.74559e-05
1.32864e-05
2.41782e-06
9.06254e-07
4.36805e-07
1.14123e-06
2.29127e-05
0.000153241
0.000118989
0.000159091
9.09032e-05
2.02988e-05
4.3538e-06
8.57207e-07
6.10458e-07
1.01328e-06
2.13846e-05
0.000148949
0.000108779
0.000168598
0.000113209
3.55556e-05
8.70622e-06
2.60925e-06
9.8185e-07
1.57882e-06
1.48481e-05
0.000139489
9.84661e-05
0.0001811
0.000141572
4.98517e-05
1.4203e-05
3.87625e-06
1.45092e-06
1.33353e-06
1.16069e-05
0.000130496
0.00379904
9.66457e-05
8.13969e-05
8.13324e-05
8.13217e-05
8.13472e-05
8.13421e-05
8.13993e-05
9.6621e-05
0.00380047
0.00223084
5.6584e-06
3.86202e-06
4.22345e-06
4.47781e-06
3.63732e-06
3.89388e-06
3.76305e-06
5.62526e-06
0.00223523
0.00145319
1.80163e-06
1.53325e-07
1.45975e-07
1.51597e-07
1.3626e-07
1.65291e-07
1.64621e-07
1.74496e-06
0.00145672
0.00103185
1.50948e-06
2.36482e-10
2.48266e-10
2.18483e-10
1.22164e-10
1.90965e-10
2.86264e-10
1.45333e-06
0.0010355
0.000783817
1.52504e-06
1.00115e-11
2.01182e-12
1.92011e-12
1.43075e-12
8.50995e-13
1.20239e-11
1.51779e-06
0.000787075
0.000626929
1.52864e-06
5.04443e-11
1.70319e-11
2.04687e-11
1.41936e-11
2.32023e-11
4.57797e-12
1.30782e-06
0.000629643
0.000521442
1.4264e-06
9.46805e-11
1.11324e-11
1.77786e-11
1.87534e-11
1.05208e-10
3.64991e-12
1.39669e-06
0.000523648
0.000446809
1.18015e-06
6.02838e-11
1.94579e-11
1.58622e-11
2.6181e-11
2.34187e-10
7.94386e-12
1.76725e-06
0.00044884
0.000391812
1.4441e-06
1.14368e-10
8.19096e-11
7.74935e-11
5.65996e-11
3.83081e-10
1.99861e-11
1.80793e-06
0.000393679
0.000349853
1.72334e-06
4.40322e-10
2.17231e-10
2.76191e-10
2.91485e-10
6.65872e-10
4.11976e-11
1.58488e-06
0.000351604
0.000316882
1.71963e-06
1.28192e-09
7.27039e-10
5.9042e-10
1.36634e-10
2.02448e-09
1.05514e-10
1.60551e-06
0.000318637
0.000290496
5.89951e-06
4.75339e-09
2.14944e-09
1.50726e-09
1.08862e-09
4.97704e-09
2.15882e-10
1.35474e-06
0.000292251
0.000268869
5.51942e-06
7.03416e-09
3.34123e-09
1.677e-09
1.13334e-09
6.30117e-09
4.15021e-10
2.95887e-06
0.000270702
0.000250751
6.90034e-06
1.51582e-08
4.98544e-09
4.95379e-09
1.61484e-09
1.25231e-08
6.80359e-10
3.15028e-06
0.000252895
0.000235481
1.04272e-05
3.74846e-08
2.16339e-08
1.58219e-08
7.7085e-09
2.66908e-08
6.92192e-10
4.0837e-06
0.00023785
0.000222256
1.52577e-05
7.80252e-08
3.34793e-08
5.49081e-08
5.62912e-08
9.50423e-08
4.69069e-09
5.11195e-06
0.000225143
0.000210792
2.12846e-05
1.04789e-07
1.19324e-07
1.36688e-07
2.15983e-07
3.06832e-07
6.5145e-09
7.16199e-06
0.000213999
0.000200511
2.4838e-05
2.97608e-07
3.36288e-07
4.3881e-07
7.46809e-07
6.93796e-07
6.36122e-08
9.4384e-06
0.00020456
0.000191257
3.4081e-05
6.54699e-07
7.8283e-07
1.02383e-06
1.68397e-06
1.41076e-06
3.88091e-07
1.19029e-05
0.000195947
0.000182722
4.66972e-05
1.57246e-06
1.31272e-06
2.01964e-06
2.89937e-06
2.47346e-06
1.49807e-06
1.59232e-05
0.000188806
0.000174747
6.06368e-05
4.46904e-06
2.40676e-06
3.30067e-06
4.20765e-06
3.63442e-06
3.44347e-06
1.80537e-05
0.000181842
0.000167042
7.76794e-05
7.3792e-06
3.22039e-06
4.86622e-06
5.36264e-06
4.74375e-06
5.67686e-06
2.14844e-05
0.0001764
0.00015955
9.55751e-05
1.50046e-05
4.92557e-06
5.94964e-06
6.34358e-06
6.00031e-06
7.46585e-06
2.117e-05
0.000170437
0.000151886
0.000112599
2.03598e-05
6.77556e-06
7.71661e-06
7.3118e-06
7.25668e-06
9.23949e-06
2.36368e-05
0.000166285
0.000144013
0.00013477
3.29605e-05
9.16001e-06
8.76842e-06
8.48255e-06
8.29026e-06
1.01294e-05
2.14495e-05
0.000160765
0.000135486
0.000143817
5.21517e-05
1.3848e-05
1.0673e-05
9.23044e-06
9.42226e-06
1.10819e-05
2.20175e-05
0.000157344
0.000125922
0.000156045
8.04049e-05
2.30978e-05
1.36686e-05
1.12665e-05
1.08419e-05
1.21002e-05
2.35174e-05
0.000151314
0.000114823
0.000172074
0.000105382
3.39895e-05
1.80703e-05
1.35694e-05
1.25717e-05
1.3209e-05
2.48978e-05
0.000147981
0.000102661
0.000185092
0.000142998
5.28217e-05
2.43179e-05
1.65322e-05
1.51559e-05
1.4796e-05
1.96536e-05
0.000138338
9.57272e-05
0.000206546
0.000178511
8.80686e-05
4.13177e-05
2.29687e-05
1.90005e-05
1.91582e-05
2.53544e-05
0.000133082
0.00380364
0.000112817
9.66262e-05
9.65272e-05
9.65332e-05
9.65332e-05
9.65269e-05
9.66248e-05
0.000112792
0.00380499
0.00224207
1.52128e-05
5.62482e-06
5.54975e-06
5.56082e-06
5.56069e-06
5.55188e-06
5.63032e-06
1.50932e-05
0.00224629
0.00146301
8.08113e-06
1.68318e-06
1.67326e-06
1.68946e-06
1.66408e-06
1.6847e-06
1.76253e-06
8.05065e-06
0.00146714
0.00103901
1.0144e-05
1.43611e-06
1.34537e-06
1.37097e-06
1.37815e-06
1.41825e-06
1.47317e-06
9.48849e-06
0.00104353
0.000787502
1.06831e-05
1.42906e-06
1.52633e-06
1.51792e-06
1.47373e-06
1.41096e-06
1.49777e-06
9.94429e-06
0.000792109
0.000627853
1.35111e-05
1.66363e-06
1.47479e-06
1.47888e-06
1.3392e-06
1.59038e-06