/*--------------------------------*- C++ -*----------------------------------*\
| =========                 |                                                 |
| \\      /  F ield         | OpenFOAM: The Open Source CFD Toolbox           |
|  \\    /   O peration     | Version:  4.1                                   |
|   \\  /    A nd           | Web:      www.OpenFOAM.org                      |
|    \\/     M anipulation  |                                                 |
\*---------------------------------------------------------------------------*/
FoamFile
{
    version     2.0;
    format      ascii;
    class       volScalarField;
    location    "2000";
    object      p;
}
// * * * * * * * * * * * * * * * * * * * * * * * * * * * * * * * * * * * * * //

dimensions      [0 2 -2 0 0 0 0];

internalField   nonuniform List<scalar> 
12000
(
0.0765571
0.0768366
0.076501
0.0763803
0.0763425
0.0763409
0.0763758
0.0764938
0.0768269
0.0765445
0.075991
0.0759758
0.0759136
0.075916
0.0759024
0.0759007
0.0759111
0.0759059
0.0759656
0.075978
0.0758723
0.0756365
0.0756979
0.0757461
0.0757479
0.075746
0.0757405
0.0756891
0.0756247
0.0758575
0.0758428
0.0755802
0.0756629
0.075691
0.075691
0.0756886
0.0756841
0.0756522
0.0755659
0.0758249
0.0757448
0.0755265
0.0756113
0.075615
0.0756127
0.0756094
0.0756064
0.0755981
0.0755087
0.0757227
0.0756208
0.0754468
0.0755299
0.0755206
0.0755206
0.0755167
0.0755099
0.0755131
0.0754248
0.0755932
0.0755188
0.0753778
0.0754541
0.0754371
0.0754399
0.0754353
0.0754236
0.0754328
0.0753499
0.0754839
0.075444
0.0753285
0.0753953
0.0753719
0.0753755
0.0753699
0.0753545
0.0753679
0.0752928
0.0753995
0.0753856
0.0752903
0.0753472
0.0753186
0.0753214
0.0753142
0.0752958
0.0753115
0.075244
0.0753285
0.0753369
0.0752566
0.0753044
0.0752717
0.0752729
0.0752635
0.0752421
0.0752576
0.0751964
0.0752633
0.0752969
0.0752269
0.0752663
0.0752305
0.0752291
0.0752169
0.075192
0.0752054
0.0751487
0.0752021
0.0752663
0.0752034
0.0752338
0.075195
0.0751897
0.0751737
0.0751448
0.0751548
0.0751014
0.0751441
0.0752452
0.0751865
0.0752072
0.0751646
0.0751538
0.0751329
0.0750994
0.0751044
0.0750531
0.0750873
0.0752332
0.075176
0.0751866
0.075139
0.0751209
0.0750937
0.0750544
0.0750529
0.0750018
0.0750285
0.0752311
0.0751728
0.0751726
0.075118
0.0750907
0.0750551
0.0750082
0.0749985
0.0749458
0.0749654
0.0752401
0.0751784
0.0751658
0.0751019
0.0750627
0.0750162
0.0749594
0.0749393
0.0748826
0.0748952
0.0752619
0.0751947
0.0751671
0.075091
0.0750366
0.0749758
0.074906
0.0748727
0.0748093
0.0748146
0.0752991
0.0752242
0.075178
0.0750855
0.0750117
0.0749327
0.074846
0.0747958
0.0747224
0.0747195
0.0753541
0.0752699
0.0751999
0.075086
0.0749878
0.0748853
0.0747764
0.0747049
0.0746174
0.0746048
0.0754294
0.075335
0.0752349
0.0750935
0.0749644
0.0748319
0.0746941
0.0745952
0.0744879
0.0744635
0.075526
0.0754226
0.0752851
0.0751089
0.0749415
0.0747708
0.074595
0.0744602
0.0743255
0.0742857
0.0756426
0.075534
0.0753526
0.0751336
0.0749191
0.0746997
0.0744739
0.074291
0.0741178
0.0740571
0.0757731
0.075667
0.075439
0.0751691
0.0748978
0.0746166
0.0743246
0.0740756
0.0738471
0.0737563
0.0759047
0.0758118
0.0755448
0.0752187
0.0748792
0.0745196
0.0741391
0.0737975
0.0734868
0.07335
0.0760186
0.0759495
0.0756683
0.0752878
0.0748678
0.0744083
0.0739085
0.0734332
0.0729947
0.0727815
0.0760954
0.0760572
0.0758065
0.0753857
0.0748714
0.0742838
0.0736212
0.0729486
0.072301
0.0719496
0.076132
0.0761241
0.0759543
0.0755198
0.0749001
0.0741506
0.0732658
0.0722965
0.0712875
0.0706404
0.0761584
0.076195
0.0761135
0.0756821
0.0749549
0.0740083
0.0728196
0.0713951
0.0697495
0.0683859
0.0761678
0.0762372
0.0761949
0.07579
0.0749975
0.0738523
0.0722822
0.0701535
0.0673974
0.0637491
0.0761281
0.0761751
0.0760738
0.0756625
0.0748648
0.0735453
0.0715178
0.0682279
0.063839
0.053013
0.0768379
0.0768741
0.0765432
0.0764245
0.0763844
0.0763829
0.07642
0.0765361
0.0768648
0.0768247
0.075977
0.0759264
0.0758917
0.0758988
0.0758836
0.075882
0.0758941
0.0758842
0.0759165
0.0759638
0.075638
0.0754166
0.075503
0.0755587
0.0755596
0.0755577
0.0755533
0.0754944
0.075405
0.0756228
0.0755822
0.0753191
0.0754221
0.0754506
0.0754488
0.0754466
0.0754441
0.0754117
0.075305
0.0755637
0.0755291
0.0753028
0.0754086
0.075405
0.0754008
0.0753981
0.0753968
0.0753957
0.0752853
0.0755061
0.0754502
0.0752655
0.0753695
0.0753495
0.0753499
0.0753465
0.075339
0.0753532
0.0752433
0.0754217
0.0753822
0.0752283
0.0753228
0.0752937
0.0752995
0.0752951
0.07528
0.0753018
0.0751998
0.0753463
0.0753342
0.0752048
0.0752865
0.0752502
0.0752586
0.0752529
0.0752326
0.0752592
0.0751682
0.0752884
0.0752975
0.0751886
0.0752579
0.0752168
0.0752252
0.0752179
0.0751938
0.0752223
0.0751414
0.0752387
0.0752658
0.0751736
0.0752313
0.0751876
0.0751945
0.0751852
0.0751576
0.0751852
0.0751125
0.0751899
0.0752387
0.0751596
0.0752061
0.0751606
0.0751648
0.0751527
0.0751217
0.075146
0.0750802
0.0751407
0.0752186
0.0751479
0.0751836
0.0751364
0.0751362
0.0751205
0.0750859
0.075105
0.0750444
0.0750919
0.075206
0.0751399
0.075165
0.0751153
0.0751091
0.0750886
0.0750498
0.0750625
0.0750051
0.075042
0.0752006
0.0751369
0.0751511
0.0750975
0.0750834
0.0750566
0.0750124
0.0750175
0.0749612
0.0749886
0.0752037
0.0751398
0.0751421
0.0750827
0.0750588
0.0750237
0.0749723
0.074968
0.0749106
0.0749301
0.0752168
0.0751502
0.0751389
0.0750712
0.0750348
0.0749891
0.0749282
0.0749124
0.0748511
0.0748638
0.0752415
0.0751701
0.0751427
0.0750635
0.0750114
0.0749517
0.0748784
0.0748486
0.0747806
0.0747858
0.0752801
0.0752016
0.0751548
0.0750599
0.074988
0.0749104
0.0748207
0.0747737
0.0746954
0.0746919
0.0753349
0.0752475
0.0751768
0.075061
0.0749643
0.0748636
0.0747524
0.0746835
0.0745908
0.074577
0.0754077
0.0753104
0.0752101
0.0750672
0.0749397
0.0748092
0.0746697
0.0745729
0.07446
0.0744337
0.0754996
0.0753927
0.0752565
0.0750793
0.0749133
0.0747447
0.074568
0.0744346
0.0742938
0.0742514
0.0756097
0.0754957
0.0753173
0.0750977
0.0748845
0.0746672
0.0744413
0.074259
0.074079
0.0740149
0.0757338
0.075618
0.0753935
0.0751234
0.0748528
0.0745735
0.0742819
0.0740327
0.0737962
0.0737009
0.0758623
0.075754
0.0754857
0.0751584
0.0748188
0.0744604
0.0740802
0.0737368
0.0734158
0.0732732
0.0759803
0.075892
0.0755939
0.0752066
0.0747852
0.0743257
0.0738248
0.0733447
0.072891
0.0726695
0.0760705
0.0760142
0.0757168
0.0752745
0.0747574
0.074169
0.0735021
0.0728181
0.0721443
0.0717792
0.0761232
0.0761024
0.0758489
0.0753683
0.0747441
0.0739937
0.0730981
0.0721044
0.0710442
0.0703663
0.0761455
0.0761608
0.0759779
0.0754805
0.0747465
0.0738001
0.0725911
0.0711208
0.0693678
0.0679231
0.0761318
0.0761673
0.0760356
0.0755525
0.0747439
0.0735908
0.0719806
0.0697674
0.0667974
0.0629012
0.0760973
0.0760726
0.0758737
0.0754031
0.0745894
0.073265
0.0711999
0.0677555
0.063075
0.0514703
0.0765035
0.0765445
0.0762367
0.0761135
0.0760719
0.0760704
0.0761091
0.0762298
0.0765353
0.0764899
0.0759161
0.075893
0.0758644
0.0758664
0.0758512
0.0758495
0.0758617
0.075857
0.075883
0.0759027
0.0757008
0.0755044
0.0755909
0.0756448
0.0756461
0.0756442
0.0756394
0.0755824
0.0754929
0.0756856
0.0756666
0.0754239
0.0755254
0.0755521
0.0755497
0.0755475
0.0755455
0.075515
0.0754099
0.0756482
0.075616
0.0754109
0.0755174
0.075511
0.0755059
0.0755032
0.0755027
0.0755046
0.0753936
0.0755934
0.0755359
0.0753725
0.0754803
0.0754582
0.0754589
0.0754555
0.0754476
0.0754641
0.0753504
0.0755077
0.0754619
0.0753266
0.0754263
0.0753958
0.0754037
0.0753992
0.0753821
0.0754054
0.0752985
0.0754263
0.0754053
0.0752914
0.0753783
0.0753408
0.0753521
0.0753462
0.0753231
0.0753511
0.075255
0.0753602
0.0753599
0.0752641
0.0753388
0.0752964
0.075308
0.0753005
0.0752734
0.0753033
0.0752169
0.0753026
0.0753205
0.0752395
0.0753028
0.0752579
0.0752682
0.0752587
0.075228
0.0752569
0.0751783
0.0752466
0.0752871
0.0752167
0.0752691
0.0752226
0.0752301
0.075218
0.0751838
0.0752093
0.0751373
0.0751912
0.075261
0.0751972
0.075239
0.0751906
0.0751936
0.0751779
0.0751403
0.0751608
0.075094
0.0751366
0.0752425
0.0751825
0.0752136
0.0751626
0.0751594
0.075139
0.0750974
0.0751115
0.0750482
0.0750813
0.0752321
0.0751736
0.0751934
0.0751385
0.0751272
0.0751006
0.0750539
0.0750602
0.0749987
0.0750234
0.0752309
0.0751711
0.0751783
0.0751179
0.0750966
0.0750619
0.0750083
0.0750052
0.0749434
0.0749607
0.0752401
0.0751763
0.0751694
0.0751009
0.0750672
0.0750219
0.0749592
0.0749445
0.07488
0.0748902
0.0752611
0.0751911
0.0751677
0.0750878
0.0750385
0.0749795
0.0749048
0.0748761
0.074806
0.0748086
0.0752957
0.0752173
0.0751743
0.0750791
0.0750102
0.0749334
0.0748427
0.0747969
0.0747176
0.0747114
0.0753459
0.0752573
0.0751905
0.0750749
0.0749814
0.0748818
0.07477
0.0747026
0.0746097
0.0745932
0.0754128
0.0753131
0.0752174
0.0750753
0.0749513
0.0748222
0.0746827
0.0745876
0.0744752
0.0744461
0.0754971
0.0753866
0.0752558
0.0750802
0.0749184
0.0747518
0.0745755
0.0744444
0.0743045
0.0742591
0.0755974
0.0754783
0.0753064
0.0750895
0.0748813
0.0746667
0.0744417
0.0742625
0.0740835
0.0740163
0.0757096
0.0755868
0.0753694
0.0751031
0.0748385
0.074563
0.0742728
0.0740275
0.0737919
0.0736932
0.0758256
0.0757073
0.0754446
0.0751217
0.0747894
0.0744362
0.0740581
0.0737193
0.0733985
0.0732516
0.0759349
0.0758309
0.0755306
0.0751467
0.0747347
0.0742827
0.0737847
0.0733093
0.0728538
0.072626
0.0760257
0.0759451
0.0756258
0.0751822
0.0746777
0.0741008
0.0734379
0.0727575
0.0720767
0.0717004
0.0760891
0.076038
0.0757273
0.0752338
0.0746276
0.0738957
0.0730059
0.0720124
0.0709315
0.0702308
0.076125
0.0761023
0.0758272
0.0753053
0.0745989
0.0736823
0.0724822
0.071004
0.0691968
0.0676984
0.0761393
0.0761343
0.0759069
0.0754015
0.0746309
0.0735208
0.0719241
0.0696928
0.0666008
0.0625603
0.076146
0.0761245
0.0759305
0.0755132
0.0747711
0.0734965
0.0714432
0.0679651
0.0630739
0.0510642
0.0763842
0.0764271
0.0761149
0.0759908
0.0759489
0.0759474
0.0759864
0.076108
0.076418
0.0763705
0.0759199
0.0759015
0.0758678
0.0758702
0.075855
0.0758534
0.0758655
0.0758604
0.0758916
0.0759065
0.0757507
0.0755618
0.0756464
0.0757026
0.075704
0.0757021
0.0756972
0.0756379
0.0755503
0.0757355
0.0756966
0.0754544
0.0755539
0.0755826
0.07558
0.0755778
0.0755761
0.0755437
0.0754404
0.0756782
0.0756219
0.0754097
0.0755133
0.0755074
0.0755017
0.075499
0.0754992
0.0755006
0.0753923
0.0755993
0.0755297
0.0753555
0.0754611
0.0754385
0.0754388
0.0754354
0.075428
0.0754449
0.0753335
0.0755015
0.0754491
0.0753013
0.0753995
0.075368
0.0753758
0.0753714
0.0753545
0.0753787
0.0752732
0.0754133
0.0753876
0.0752601
0.0753457
0.0753065
0.0753178
0.0753122
0.075289
0.0753188
0.0752241
0.0753417
0.0753387
0.0752297
0.0753028
0.075258
0.0752695
0.0752624
0.0752352
0.0752678
0.0751831
0.0752798
0.0752977
0.0752044
0.0752664
0.0752185
0.0752286
0.0752194
0.0751888
0.0752208
0.0751439
0.0752219
0.0752642
0.0751827
0.075234
0.0751844
0.0751915
0.0751797
0.0751457
0.0751743
0.075104
0.0751662
0.0752387
0.0751653
0.0752057
0.0751545
0.0751571
0.0751416
0.0751041
0.0751279
0.0750628
0.0751118
0.0752212
0.0751532
0.0751824
0.0751289
0.0751251
0.075105
0.0750635
0.075081
0.0750193
0.0750574
0.0752121
0.0751467
0.0751644
0.0751073
0.0750955
0.0750692
0.0750225
0.0750322
0.0749721
0.0750009
0.0752122
0.0751467
0.0751517
0.0750894
0.0750676
0.0750332
0.0749797
0.0749797
0.0749191
0.0749395
0.0752225
0.0751544
0.075145
0.0750751
0.0750407
0.0749958
0.0749333
0.0749215
0.074858
0.0748702
0.0752445
0.0751711
0.0751452
0.0750644
0.0750144
0.0749559
0.0748813
0.0748554
0.074786
0.0747897
0.0752797
0.0751987
0.075153
0.0750575
0.074988
0.0749118
0.0748214
0.0747779
0.0746992
0.0746936
0.0753297
0.0752391
0.0751696
0.0750544
0.0749606
0.0748617
0.0747503
0.0746848
0.0745924
0.074576
0.0753954
0.0752941
0.0751955
0.0750547
0.0749308
0.0748028
0.0746638
0.0745704
0.0744582
0.0744289
0.0754771
0.0753651
0.0752316
0.0750582
0.074897
0.0747318
0.0745563
0.0744266
0.0742867
0.0742409
0.0755734
0.0754526
0.0752782
0.0750642
0.0748575
0.0746448
0.0744209
0.0742429
0.0740636
0.0739955
0.0756804
0.0755554
0.0753353
0.0750724
0.0748103
0.0745372
0.0742486
0.0740043
0.0737679
0.0736679
0.0757917
0.0756697
0.0754028
0.075083
0.0747543
0.0744044
0.0740284
0.0736904
0.0733678
0.0732189
0.0758993
0.0757884
0.0754801
0.0750977
0.0746905
0.0742431
0.0737479
0.0732728
0.0728138
0.0725826
0.075994
0.0759024
0.0755673
0.0751219
0.0746241
0.0740538
0.0733944
0.0727134
0.0720256
0.0716428
0.0760693
0.0760031
0.0756654
0.0751667
0.0745706
0.0738487
0.0729635
0.0719675
0.0708729
0.0701596
0.0761247
0.0760846
0.0757748
0.0752498
0.0745603
0.0736589
0.0724648
0.0709815
0.0691497
0.0676264
0.0761659
0.0761464
0.075899
0.0754078
0.074665
0.0735749
0.0719857
0.0697493
0.0666248
0.0625594
0.0761963
0.0761822
0.0760349
0.0756779
0.0749737
0.0737128
0.0716622
0.0681837
0.063271
0.0513206
0.076348
0.0763887
0.0760749
0.0759505
0.0759085
0.075907
0.0759461
0.076068
0.0763795
0.0763342
0.075908
0.0758879
0.0758542
0.0758566
0.0758413
0.0758397
0.0758519
0.0758468
0.075878
0.0758946
0.0757544
0.0755645
0.0756495
0.0757058
0.0757072
0.0757053
0.0757005
0.0756411
0.075553
0.0757391
0.0756989
0.0754548
0.0755539
0.0755823
0.0755795
0.0755772
0.0755757
0.0755436
0.0754408
0.0756804
0.0756224
0.0754084
0.0755112
0.0755046
0.0754984
0.0754957
0.0754963
0.0754984
0.075391
0.0755995
0.075533
0.0753596
0.0754656
0.0754425
0.0754425
0.0754391
0.075432
0.0754494
0.0753376
0.0755046
0.0754563
0.075312
0.0754122
0.0753806
0.0753884
0.075384
0.0753671
0.0753913
0.0752839
0.0754206
0.0753971
0.0752748
0.0753631
0.0753241
0.0753357
0.0753301
0.0753065
0.0753361
0.0752387
0.0753513
0.0753495
0.0752463
0.0753224
0.0752777
0.0752898
0.0752826
0.0752549
0.0752874
0.0751997
0.0752907
0.0753093
0.0752221
0.0752873
0.0752394
0.0752501
0.075241
0.0752096
0.0752414
0.0751616
0.0752338
0.0752763
0.0752008
0.0752552
0.0752056
0.0752136
0.0752018
0.0751669
0.0751955
0.0751221
0.0751789
0.0752511
0.0751831
0.0752264
0.0751753
0.0751789
0.0751635
0.075125
0.0751488
0.0750805
0.0751252
0.0752332
0.0751702
0.0752023
0.0751487
0.0751461
0.075126
0.0750834
0.075101
0.0750363
0.0750711
0.0752235
0.0751628
0.0751831
0.075126
0.0751153
0.075089
0.0750413
0.0750511
0.0749881
0.0750144
0.0752229
0.0751616
0.0751693
0.0751068
0.0750861
0.0750517
0.0749972
0.0749975
0.0749342
0.0749524
0.0752325
0.075168
0.0751613
0.0750911
0.0750578
0.075013
0.0749496
0.0749382
0.0748723
0.0748825
0.0752536
0.0751834
0.0751599
0.0750789
0.0750301
0.0749717
0.0748964
0.0748708
0.0747994
0.0748013
0.0752877
0.0752093
0.0751661
0.0750704
0.0750021
0.0749262
0.0748351
0.0747921
0.0747117
0.0747045
0.0753362
0.0752477
0.0751806
0.0750654
0.0749729
0.0748745
0.0747625
0.0746977
0.0746038
0.0745861
0.0754
0.0753002
0.0752043
0.0750636
0.0749412
0.0748138
0.0746744
0.0745818
0.0744685
0.0744382
0.0754795
0.0753683
0.0752375
0.0750646
0.0749051
0.0747408
0.0745651
0.0744365
0.0742958
0.0742491
0.0755731
0.0754524
0.0752806
0.0750676
0.0748627
0.0746513
0.0744276
0.0742508
0.0740711
0.0740024
0.0756773
0.0755516
0.0753336
0.0750721
0.0748122
0.0745408
0.0742526
0.0740098
0.0737733
0.0736729
0.0757863
0.0756626
0.0753966
0.0750783
0.0747522
0.0744044
0.0740294
0.0736931
0.0733707
0.0732213
0.0758931
0.0757795
0.0754695
0.0750883
0.0746841
0.0742395
0.0737458
0.0732727
0.072814
0.072582
0.0759897
0.0758942
0.0755535
0.0751084
0.0746143
0.0740479
0.0733907
0.0727117
0.0720239
0.0716398
0.0760696
0.0759991
0.0756514
0.075152
0.0745613
0.0738451
0.0729631
0.071969
0.0708737
0.0701579
0.0761313
0.0760874
0.0757667
0.0752421
0.0745613
0.0736684
0.072479
0.0709977
0.0691643
0.0676375
0.076178
0.0761558
0.0759058
0.0754232
0.0746949
0.0736175
0.0720365
0.0698041
0.0666801
0.0626081
0.0762124
0.076199
0.0760735
0.0757447
0.0750635
0.0738201
0.0717828
0.0683138
0.063407
0.0514409
0.0763481
0.0763888
0.076075
0.0759506
0.0759086
0.0759071
0.0759462
0.0760681
0.0763796
0.0763343
0.0759081
0.075888
0.0758543
0.0758567
0.0758414
0.0758398
0.075852
0.0758469
0.0758781
0.0758947
0.0757545
0.0755646
0.0756496
0.0757059
0.0757073
0.0757054
0.0757006
0.0756412
0.0755531
0.0757393
0.075699
0.0754549
0.0755539
0.0755824
0.0755795
0.0755773
0.0755758
0.0755437
0.0754409
0.0756806
0.0756225
0.0754085
0.0755112
0.0755046
0.0754985
0.0754957
0.0754964
0.0754985
0.0753911
0.0755998
0.0755332
0.0753597
0.0754657
0.0754426
0.0754426
0.0754392
0.0754321
0.0754495
0.0753378
0.0755048
0.0754565
0.0753121
0.0754123
0.0753807
0.0753885
0.0753842
0.0753672
0.0753915
0.0752841
0.0754207
0.0753973
0.0752749
0.0753632
0.0753242
0.0753358
0.0753303
0.0753067
0.0753363
0.0752389
0.0753516
0.0753497
0.0752465
0.0753227
0.0752779
0.07529
0.0752828
0.0752551
0.0752876
0.0752
0.0752909
0.0753096
0.0752224
0.0752876
0.0752396
0.0752504
0.0752412
0.0752099
0.0752417
0.0751619
0.075234
0.0752767
0.0752011
0.0752556
0.0752059
0.075214
0.0752021
0.0751672
0.0751959
0.0751225
0.0751791
0.0752516
0.0751836
0.075227
0.0751757
0.0751794
0.075164
0.0751255
0.0751493
0.075081
0.0751254
0.075234
0.0751709
0.075203
0.0751493
0.0751467
0.0751266
0.0750841
0.0751018
0.075037
0.0750712
0.0752244
0.0751637
0.0751841
0.0751268
0.0751161
0.0750898
0.0750421
0.075052
0.074989
0.0750148
0.075224
0.0751628
0.0751705
0.0751078
0.0750871
0.0750528
0.0749983
0.0749984
0.0749352
0.0749534
0.0752339
0.0751695
0.0751628
0.0750924
0.0750591
0.0750144
0.0749509
0.0749394
0.0748735
0.0748837
0.0752555
0.0751853
0.0751617
0.0750806
0.0750317
0.0749734
0.074898
0.0748724
0.074801
0.0748028
0.0752901
0.0752117
0.0751684
0.0750725
0.0750042
0.0749283
0.0748372
0.0747942
0.0747137
0.0747064
0.0753392
0.0752507
0.0751834
0.0750681
0.0749756
0.0748771
0.0747652
0.0747003
0.0746064
0.0745888
0.0754038
0.0753039
0.0752077
0.075067
0.0749444
0.0748171
0.0746777
0.0745851
0.0744719
0.0744417
0.075484
0.0753727
0.0752416
0.0750687
0.0749092
0.0747449
0.0745694
0.0744406
0.0743001
0.0742537
0.0755783
0.0754576
0.0752855
0.0750725
0.0748678
0.0746565
0.0744329
0.0742561
0.0740767
0.0740084
0.075683
0.0755574
0.0753392
0.075078
0.0748182
0.0745472
0.0742594
0.0740167
0.0737805
0.0736807
0.0757921
0.0756686
0.0754027
0.075085
0.0747594
0.0744123
0.0740379
0.0737019
0.07338
0.0732314
0.0758982
0.0757851
0.0754759
0.0750957
0.0746924
0.0742489
0.0737562
0.0732838
0.0728259
0.0725949
0.0759932
0.0758986
0.0755594
0.0751159
0.0746234
0.0740587
0.0734033
0.0727256
0.072039
0.0716562
0.0760708
0.0760013
0.0756559
0.0751589
0.0745706
0.0738568
0.0729775
0.0719857
0.0708923
0.0701781
0.0761298
0.0760867
0.0757688
0.0752473
0.0745696
0.0736801
0.0724945
0.0710168
0.0691864
0.0676612
0.0761745
0.0761523
0.0759045
0.0754254
0.0747008
0.0736274
0.072051
0.069823
0.0667032
0.0626312
0.0762077
0.0761938
0.0760689
0.075743
0.0750653
0.073826
0.0717936
0.0683288
0.0634257
0.0514588
0.0763845
0.0764275
0.0761152
0.0759911
0.0759492
0.0759477
0.0759867
0.0761083
0.0764184
0.0763708
0.0759202
0.0759018
0.0758681
0.0758705
0.0758553
0.0758537
0.0758658
0.0758607
0.0758919
0.0759069
0.075751
0.075562
0.0756466
0.0757028
0.0757043
0.0757024
0.0756974
0.0756382
0.0755505
0.0757359
0.0756971
0.0754546
0.0755541
0.0755829
0.0755803
0.0755781
0.0755763
0.0755439
0.0754406
0.0756786
0.0756226
0.0754099
0.0755135
0.0755077
0.075502
0.0754992
0.0754995
0.0755008
0.0753926
0.0755998
0.0755302
0.0753558
0.0754614
0.0754388
0.0754391
0.0754357
0.0754283
0.0754452
0.0753339
0.0755019
0.0754495
0.0753017
0.0754
0.0753684
0.0753762
0.0753718
0.0753549
0.0753791
0.0752737
0.0754139
0.0753879
0.0752607
0.0753463
0.075307
0.0753183
0.0753127
0.0752895
0.0753193
0.0752246
0.0753425
0.0753392
0.0752304
0.0753037
0.0752586
0.0752701
0.075263
0.0752359
0.0752685
0.0751838
0.0752807
0.0752983
0.0752053
0.0752675
0.0752194
0.0752295
0.0752202
0.0751897
0.0752216
0.0751447
0.0752228
0.0752652
0.0751839
0.0752353
0.0751855
0.0751927
0.0751807
0.0751467
0.0751753
0.0751049
0.0751673
0.0752402
0.0751669
0.0752073
0.075156
0.0751586
0.075143
0.0751055
0.0751291
0.0750639
0.0751132
0.0752232
0.0751552
0.0751846
0.0751309
0.0751272
0.0751069
0.0750653
0.0750827
0.0750208
0.0750591
0.0752146
0.0751495
0.0751673
0.0751099
0.0750981
0.0750716
0.075025
0.0750346
0.0749741
0.0750029
0.0752154
0.0751504
0.0751554
0.0750928
0.0750709
0.0750363
0.0749828
0.074983
0.0749218
0.074942
0.0752269
0.0751591
0.0751496
0.0750794
0.0750449
0.0749998
0.0749373
0.0749258
0.0748617
0.0748735
0.0752502
0.0751772
0.0751509
0.0750699
0.0750198
0.0749611
0.0748865
0.0748607
0.0747909
0.0747941
0.0752871
0.0752064
0.0751604
0.0750645
0.0749949
0.0749185
0.0748279
0.0747846
0.0747056
0.0746995
0.0753389
0.0752487
0.0751787
0.0750632
0.0749692
0.0748701
0.0747586
0.0746932
0.0746005
0.0745839
0.0754069
0.0753059
0.0752068
0.0750656
0.0749416
0.0748134
0.0746743
0.074581
0.0744687
0.0744394
0.0754911
0.0753793
0.0752453
0.0750716
0.0749104
0.0747453
0.0745697
0.0744402
0.0743003
0.0742546
0.0755898
0.0754692
0.0752944
0.0750805
0.074874
0.0746617
0.0744381
0.0742604
0.0740813
0.0740135
0.0756985
0.075574
0.075354
0.0750917
0.0748304
0.0745583
0.0742704
0.0740269
0.0737908
0.0736914
0.0758103
0.0756892
0.0754235
0.0751053
0.0747784
0.0744304
0.0740559
0.0737193
0.0733976
0.0732495
0.0759163
0.0758073
0.075502
0.0751228
0.0747186
0.0742744
0.0737821
0.0733097
0.0728525
0.0726223
0.0760071
0.0759183
0.0755885
0.0751485
0.0746557
0.0740904
0.073436
0.0727597
0.0720752
0.0716941
0.076076
0.076013
0.0756831
0.0751925
0.0746038
0.0738895
0.0730123
0.072024
0.0709355
0.0702246
0.076123
0.0760859
0.0757856
0.075271
0.0745914
0.0737009
0.0725186
0.0710473
0.0692259
0.0677064
0.0761549
0.0761371
0.0758978
0.0754184
0.0746884
0.0736127
0.0720394
0.0698191
0.0667109
0.0626451
0.0761787
0.0761635
0.0760192
0.0756731
0.0749837
0.0737405
0.0717094
0.0682491
0.0633568
0.0513935
0.076504
0.076545
0.0762373
0.0761141
0.0760726
0.0760711
0.0761097
0.0762305
0.0765361
0.0764905
0.0759165
0.0758934
0.0758648
0.0758669
0.0758516
0.07585
0.0758622
0.0758575
0.0758836
0.0759033
0.0757013
0.0755048
0.0755912
0.0756452
0.0756465
0.0756446
0.0756398
0.0755827
0.0754933
0.0756862
0.0756671
0.0754242
0.0755256
0.0755524
0.0755501
0.0755478
0.0755458
0.0755153
0.0754102
0.0756488
0.0756166
0.0754113
0.0755178
0.0755114
0.0755064
0.0755036
0.0755031
0.0755048
0.0753938
0.0755941
0.0755365
0.0753729
0.0754809
0.0754586
0.0754595
0.0754559
0.0754481
0.0754645
0.075351
0.0755083
0.0754626
0.0753272
0.0754269
0.0753963
0.0754042
0.0753998
0.0753828
0.0754061
0.0752993
0.075427
0.0754063
0.0752922
0.0753791
0.0753415
0.0753527
0.0753472
0.075324
0.0753521
0.075256
0.0753612
0.075361
0.0752652
0.0753399
0.0752974
0.0753088
0.0753017
0.0752745
0.0753047
0.0752181
0.0753038
0.0753219
0.0752409
0.0753044
0.0752592
0.0752692
0.0752601
0.0752294
0.0752585
0.0751797
0.075248
0.0752889
0.0752186
0.075271
0.0752243
0.0752315
0.0752196
0.0751854
0.075211
0.0751389
0.0751931
0.0752633
0.0751997
0.0752413
0.075193
0.0751957
0.0751802
0.0751423
0.0751627
0.075096
0.075139
0.0752456
0.0751858
0.0752167
0.0751658
0.0751623
0.075142
0.0751
0.075114
0.0750509
0.0750843
0.0752363
0.0751779
0.0751975
0.0751426
0.0751311
0.0751045
0.0750575
0.0750639
0.0750023
0.0750267
0.0752364
0.0751768
0.0751839
0.0751233
0.0751016
0.0750668
0.0750132
0.0750102
0.0749482
0.0749646
0.0752473
0.0751837
0.0751765
0.0751079
0.0750737
0.0750282
0.0749656
0.0749512
0.0748865
0.0748953
0.0752705
0.0752007
0.0751768
0.0750969
0.0750471
0.0749877
0.074913
0.0748847
0.0748144
0.0748156
0.0753079
0.0752297
0.0751862
0.0750907
0.0750212
0.074944
0.0748533
0.0748077
0.0747283
0.074721
0.0753612
0.075273
0.0752056
0.0750895
0.0749955
0.0748954
0.0747835
0.0747162
0.0746233
0.0746061
0.0754321
0.0753328
0.0752362
0.0750935
0.074969
0.0748396
0.0746999
0.0746049
0.0744927
0.0744631
0.0755208
0.0754105
0.0752787
0.0751026
0.0749405
0.0747738
0.0745975
0.0744665
0.0743269
0.0742814
0.0756255
0.0755067
0.0753339
0.0751168
0.0749087
0.0746946
0.0744699
0.074291
0.0741125
0.0740453
0.0757412
0.0756193
0.0754016
0.0751359
0.0748723
0.0745979
0.0743089
0.0740644
0.0738296
0.0737312
0.075859
0.0757427
0.0754811
0.0751601
0.0748303
0.0744796
0.0741039
0.0737668
0.0734475
0.0733015
0.0759672
0.0758669
0.0755705
0.0751908
0.0747833
0.074336
0.0738425
0.0733707
0.072918
0.0726918
0.0760533
0.0759783
0.075667
0.0752308
0.0747337
0.0741646
0.0735096
0.0728363
0.0721608
0.0717874
0.076108
0.0760639
0.0757664
0.0752842
0.0746888
0.073969
0.0730925
0.0721115
0.0710408
0.070345
0.0761302
0.0761157
0.0758583
0.0753511
0.074659
0.0737604
0.0725812
0.0711243
0.0693363
0.0678465
0.0761243
0.0761258
0.0759157
0.0754284
0.0746777
0.0735927
0.0720266
0.0698283
0.0667704
0.0627365
0.0761138
0.0760909
0.0759043
0.0755034
0.0747862
0.0735449
0.0715338
0.0681015
0.0632642
0.0512489
0.0768383
0.0768751
0.0765443
0.0764256
0.0763856
0.076384
0.0764212
0.0765375
0.0768662
0.0768253
0.0759775
0.0759271
0.0758923
0.0758994
0.0758842
0.0758826
0.0758948
0.075885
0.0759173
0.0759643
0.0756385
0.075417
0.0755034
0.0755591
0.07556
0.0755581
0.0755537
0.0754949
0.0754056
0.0756234
0.0755827
0.0753194
0.0754225
0.075451
0.0754492
0.0754469
0.0754444
0.0754121
0.0753054
0.0755645
0.0755296
0.0753033
0.0754091
0.0754055
0.0754013
0.0753985
0.0753972
0.0753961
0.0752857
0.0755072
0.075451
0.0752661
0.0753702
0.0753501
0.0753506
0.075347
0.0753396
0.0753537
0.0752439
0.0754227
0.0753832
0.075229
0.0753237
0.0752945
0.0753004
0.0752959
0.0752809
0.0753025
0.0752007
0.0753473
0.0753354
0.075206
0.0752878
0.0752514
0.0752598
0.0752541
0.0752337
0.0752603
0.0751693
0.0752897
0.075299
0.0751902
0.0752596
0.0752184
0.0752268
0.0752194
0.0751954
0.0752239
0.0751428
0.0752404
0.0752677
0.0751757
0.0752336
0.0751895
0.0751965
0.0751871
0.0751596
0.0751872
0.0751141
0.0751923
0.0752413
0.0751622
0.0752088
0.075163
0.0751672
0.075155
0.075124
0.0751483
0.0750819
0.075144
0.0752219
0.0751512
0.0751869
0.0751395
0.0751393
0.0751235
0.0750887
0.0751079
0.0750468
0.0750956
0.0752104
0.0751441
0.0751691
0.0751193
0.0751131
0.0750925
0.0750533
0.0750664
0.0750084
0.0750457
0.0752064
0.0751424
0.0751564
0.0751027
0.0750885
0.0750616
0.0750171
0.0750225
0.0749655
0.0749925
0.0752111
0.0751471
0.0751492
0.0750896
0.0750654
0.0750302
0.0749785
0.0749745
0.0749162
0.0749348
0.0752264
0.0751598
0.0751481
0.0750802
0.0750434
0.0749975
0.0749363
0.0749208
0.0748587
0.07487
0.0752541
0.0751826
0.0751546
0.075075
0.0750225
0.0749626
0.0748889
0.0748595
0.0747907
0.0747944
0.0752964
0.0752178
0.0751702
0.0750748
0.0750024
0.0749244
0.0748344
0.0747876
0.0747087
0.0747039
0.0753558
0.0752682
0.0751964
0.07508
0.0749828
0.0748816
0.07477
0.0747013
0.0746081
0.0745933
0.0754341
0.0753365
0.0752348
0.0750913
0.0749631
0.0748323
0.0746925
0.0745957
0.0744825
0.0744553
0.0755323
0.0754251
0.0752871
0.0751093
0.0749428
0.0747741
0.0745973
0.0744639
0.0743231
0.0742799
0.0756488
0.0755349
0.0753546
0.0751346
0.0749213
0.0747046
0.074479
0.074297
0.0741172
0.0740524
0.0757783
0.0756638
0.075438
0.0751684
0.0748987
0.0746209
0.0743304
0.0740822
0.0738463
0.0737507
0.0759096
0.0758047
0.0755376
0.0752124
0.0748755
0.0745202
0.0741428
0.0738015
0.073482
0.0733395
0.0760256
0.0759441
0.0756523
0.0752704
0.0748545
0.074401
0.0739055
0.0734299
0.0729794
0.0727589
0.0761083
0.076062
0.0757802
0.0753488
0.0748409
0.0742627
0.0736058
0.0729309
0.0722636
0.0719011
0.0761508
0.0761415
0.0759134
0.075451
0.0748412
0.0741076
0.07323
0.0722537
0.0712072
0.070535
0.0761591
0.0761894
0.0760364
0.0755633
0.0748513
0.0739315
0.0727534
0.0713151
0.0695911
0.0681602
0.0761219
0.0761669
0.0760573
0.0756042
0.0748328
0.0737239
0.0721653
0.0700092
0.0671022
0.0632272
0.076066
0.0760406
0.0758432
0.0753892
0.0746142
0.0733477
0.0713605
0.0680111
0.0634515
0.05189
0.076557
0.0768363
0.0765004
0.0763796
0.0763418
0.0763403
0.0763752
0.0764934
0.0768268
0.0765436
0.0759911
0.0759758
0.0759135
0.0759159
0.0759023
0.0759007
0.0759112
0.075906
0.0759657
0.0759779
0.0758726
0.0756366
0.075698
0.0757462
0.075748
0.0757461
0.0757407
0.0756894
0.0756251
0.0758577
0.0758432
0.0755805
0.0756632
0.0756911
0.075691
0.0756888
0.0756845
0.0756528
0.0755666
0.0758256
0.0757454
0.0755269
0.0756117
0.0756152
0.0756127
0.07561
0.0756069
0.0755988
0.0755098
0.0757239
0.0756216
0.0754476
0.0755306
0.0755214
0.0755211
0.0755177
0.0755107
0.0755142
0.0754259
0.0755946
0.0755199
0.0753791
0.0754554
0.0754387
0.0754412
0.0754367
0.0754248
0.0754341
0.0753513
0.0754855
0.0754454
0.0753302
0.0753971
0.075374
0.0753774
0.0753716
0.0753561
0.0753694
0.0752944
0.0754013
0.0753875
0.0752923
0.0753494
0.0753211
0.0753238
0.0753163
0.0752979
0.0753133
0.0752462
0.0753308
0.0753394
0.0752592
0.0753071
0.0752748
0.0752761
0.0752664
0.0752449
0.0752602
0.0751995
0.0752663
0.0753002
0.0752305
0.0752698
0.0752343
0.075233
0.0752205
0.0751956
0.0752088
0.0751529
0.0752058
0.0752705
0.0752078
0.0752383
0.0751994
0.0751941
0.0751779
0.0751492
0.0751588
0.075106
0.0751485
0.0752506
0.0751921
0.0752128
0.0751699
0.075159
0.0751378
0.0751045
0.0751091
0.0750578
0.075092
0.0752402
0.0751831
0.0751935
0.0751457
0.0751276
0.0750999
0.0750606
0.0750585
0.0750071
0.0750338
0.0752401
0.075182
0.0751816
0.0751268
0.0750994
0.0750632
0.0750161
0.0750056
0.0749523
0.0749718
0.0752518
0.0751904
0.0751777
0.0751134
0.0750739
0.0750266
0.0749694
0.0749484
0.0748909
0.0749036
0.0752774
0.0752104
0.0751825
0.0751057
0.0750508
0.0749892
0.0749189
0.0748847
0.0748204
0.0748258
0.0753192
0.0752444
0.0751976
0.0751042
0.0750299
0.0749501
0.0748626
0.0748118
0.0747375
0.0747346
0.0753799
0.0752956
0.0752248
0.0751099
0.075011
0.0749078
0.0747982
0.0747261
0.0746376
0.0746249
0.0754618
0.0753675
0.0752661
0.0751235
0.074994
0.0748608
0.0747223
0.074623
0.0745146
0.07449
0.0755658
0.0754629
0.0753238
0.0751463
0.0749788
0.0748075
0.0746313
0.0744962
0.0743605
0.0743203
0.0756893
0.0755823
0.0753997
0.0751797
0.0749657
0.0747463
0.0745206
0.0743377
0.0741636
0.0741025
0.0758245
0.0757219
0.0754947
0.0752251
0.0749553
0.0746755
0.0743847
0.0741364
0.0739074
0.0738163
0.0759564
0.0758696
0.0756082
0.0752857
0.0749499
0.0745939
0.0742166
0.073877
0.0735668
0.0734299
0.0760639
0.0760039
0.075737
0.0753663