/*--------------------------------*- C++ -*----------------------------------*\
| =========                 |                                                 |
| \\      /  F ield         | OpenFOAM: The Open Source CFD Toolbox           |
|  \\    /   O peration     | Version:  4.1                                   |
|   \\  /    A nd           | Web:      www.OpenFOAM.org                      |
|    \\/     M anipulation  |                                                 |
\*---------------------------------------------------------------------------*/
FoamFile
{
    version     2.0;
    format      ascii;
    class       surfaceScalarField;
    location    "2000";
    object      phi;
}
// * * * * * * * * * * * * * * * * * * * * * * * * * * * * * * * * * * * * * //

dimensions      [0 3 -1 0 0 0 0];

internalField   nonuniform List<scalar> 
33700
(
4.94973e-05
0.000901082
4.9429e-05
2.30867e-05
0.000971518
5.49026e-05
8.42811e-06
0.000957573
5.70957e-05
3.14739e-06
0.000948367
5.69236e-05
8.77373e-08
0.000945916
5.71543e-05
-2.97982e-06
0.000945926
5.71526e-05
-8.27883e-06
0.000948391
5.69199e-05
-2.29636e-05
0.000957601
5.7091e-05
-4.94061e-05
0.000971551
5.48955e-05
0.000901108
4.94849e-05
3.12207e-05
0.000838778
3.10881e-05
2.35722e-05
0.00094143
3.7735e-05
1.34184e-05
0.000928006
3.972e-05
6.14322e-06
0.000916344
3.92987e-05
2.23344e-07
0.000912121
3.9716e-05
-5.71569e-06
0.000912151
3.97176e-05
-1.30189e-05
0.000916418
3.92776e-05
-2.31762e-05
0.000928096
3.96583e-05
-3.08363e-05
0.00094153
3.76691e-05
0.000839129
3.11288e-05
1.625e-05
0.000806508
1.60093e-05
1.68372e-05
0.000918818
2.20117e-05
1.18444e-05
0.000909755
2.32303e-05
6.10265e-06
0.000899148
2.2925e-05
3.77065e-07
0.000894379
2.34557e-05
-5.34708e-06
0.000894439
2.34267e-05
-1.11489e-05
0.000899307
2.29013e-05
-1.61946e-05
0.000909957
2.3169e-05
-1.57101e-05
0.000919084
2.19378e-05
0.000807422
1.59756e-05
8.88312e-06
0.000789091
8.50132e-06
1.24573e-05
0.000902365
1.28427e-05
9.78891e-06
0.000899281
1.31077e-05
5.23557e-06
0.00089023
1.3437e-05
6.32156e-07
0.000884901
1.40484e-05
-4.12349e-06
0.000885133
1.40273e-05
-8.72805e-06
0.000890485
1.3392e-05
-1.14826e-05
0.000899632
1.30423e-05
-8.19464e-06
0.000902972
1.27842e-05
0.000790693
8.50452e-06
5.53305e-06
0.000778534
4.9648e-06
9.83676e-06
0.000889583
8.41742e-06
8.43891e-06
0.000893168
7.44985e-06
4.63714e-06
0.000885453
8.51797e-06
1.00614e-06
0.00087929
9.18046e-06
-3.1189e-06
0.000880022
9.17582e-06
-6.95455e-06
0.000885824
8.43628e-06
-8.47379e-06
0.000893754
7.33668e-06
-4.59916e-06
0.000890704
8.33413e-06
0.000781051
5.00266e-06
4.4162e-06
0.000770432
3.60558e-06
7.82303e-06
0.000879488
6.60514e-06
7.459e-06
0.000889048
4.40006e-06
4.37547e-06
0.000882216
6.23686e-06
1.31182e-06
0.000875414
6.85478e-06
-2.18594e-06
0.000876668
6.76603e-06
-5.38021e-06
0.000882754
6.1795e-06
-6.08869e-06
0.000890029
4.35337e-06
-3.11533e-06
0.00088113
6.52517e-06
0.000774218
3.67064e-06
4.33519e-06
0.00076278
3.21915e-06
6.38284e-06
0.000871217
6.1219e-06
6.80179e-06
0.000885628
2.89931e-06
4.33794e-06
0.000879249
5.32905e-06
1.61343e-06
0.000872317
5.71943e-06
-1.19597e-06
0.000873779
5.59485e-06
-3.96151e-06
0.000880074
5.34315e-06
-4.17936e-06
0.000887264
2.88717e-06
-2.54277e-06
0.000873302
6.10345e-06
0.000768318
3.30149e-06
4.6361e-06
0.000754908
3.12458e-06
5.58448e-06
0.000864036
6.12038e-06
6.52746e-06
0.000882489
2.08236e-06
4.50511e-06
0.000876177
4.98041e-06
2.09668e-06
0.000869548
5.06138e-06
-2.11479e-07
0.000871039
4.93059e-06
-2.74343e-06
0.000877424
5.06616e-06
-2.67258e-06
0.00088498
2.10517e-06
-2.20828e-06
0.000866559
6.17898e-06
0.000762808
3.24012e-06
5.06295e-06
0.000746682
3.04168e-06
5.31412e-06
0.000857463
6.19859e-06
6.68723e-06
0.000879473
1.52003e-06
4.89588e-06
0.00087302
4.82455e-06
2.80027e-06
0.000866947
4.57123e-06
8.11733e-07
0.000868475
4.42483e-06
-1.63048e-06
0.0008748
4.94059e-06
-1.40893e-06
0.000883087
1.5541e-06
-1.82922e-06
0.000860546
6.3244e-06
0.000757699
3.21196e-06
5.57959e-06
0.000738075
2.89807e-06
5.47562e-06
0.000851259
6.17922e-06
7.19482e-06
0.000876526
1.09841e-06
5.5612e-06
0.000869837
4.686e-06
3.75652e-06
0.000864484
4.13346e-06
1.96133e-06
0.000866161
3.97216e-06
-4.91887e-07
0.000872289
4.83029e-06
-1.93438e-07
0.000881545
1.11754e-06
-1.30985e-06
0.000855142
6.40304e-06
0.000753152
3.16368e-06
6.28313e-06
0.000728914
2.74091e-06
5.90633e-06
0.000845392
6.10831e-06
8.00612e-06
0.000873535
7.54668e-07
6.59264e-06
0.000866587
4.52539e-06
5.01397e-06
0.000862175
3.74718e-06
3.36711e-06
0.000864117
3.54792e-06
8.02401e-07
0.000869986
4.72727e-06
1.13807e-06
0.000880324
7.54019e-07
-6.73632e-07
0.000850417
6.41216e-06
0.000749259
3.14119e-06
7.22572e-06
0.000718985
2.55957e-06
6.68877e-06
0.000839841
5.94549e-06
9.22264e-06
0.000870379
4.79755e-07
8.03688e-06
0.000863267
4.36139e-06
6.64926e-06
0.000860014
3.40128e-06
5.11215e-06
0.000862345
3.15981e-06
2.35759e-06
0.000867979
4.61509e-06
2.67851e-06
0.000879431
4.34529e-07
6.40851e-08
0.000846576
6.32534e-06
0.000746079
3.16083e-06
8.44007e-06
0.0007081
2.29289e-06
8.05788e-06
0.000834389
5.68643e-06
1.09606e-05
0.000867006
3.21547e-07
9.98563e-06
0.000859901
4.18972e-06
8.78029e-06
0.000857969
3.09734e-06
7.28239e-06
0.000860868
2.82044e-06
4.29103e-06
0.000866322
4.49595e-06
4.43068e-06
0.000878954
1.95107e-07
9.55357e-07
0.000843799
6.1165e-06
0.00074374
3.20632e-06
1.00706e-05
0.000695866
2.00295e-06
1.00558e-05
0.000828829
5.41897e-06
1.33791e-05
0.000863316
2.11349e-07
1.26101e-05
0.000856507
4.00642e-06
1.15697e-05
0.000856016
2.83493e-06
1.00384e-05
0.000859721
2.51765e-06
6.71174e-06
0.000865119
4.37396e-06
6.47941e-06
0.000879035
4.23432e-09
2.06055e-06
0.000842223
5.85402e-06
0.000742438
3.27118e-06
1.22519e-05
0.000681729
1.71548e-06
1.28156e-05
0.000822953
5.15096e-06
1.6667e-05
0.000859141
1.62314e-07
1.61167e-05
0.000853068
3.82594e-06
1.52149e-05
0.000854137
2.61671e-06
1.35707e-05
0.000858954
2.24762e-06
9.78589e-06
0.000864499
4.24493e-06
8.97958e-06
0.000879819
-1.27999e-07
3.43991e-06
0.000841997
5.62006e-06
0.000742458
3.32473e-06
1.51357e-05
0.000664964
1.44938e-06
1.65781e-05
0.000816438
4.90512e-06
2.10316e-05
0.000854326
1.95692e-07
2.0755e-05
0.000849522
3.65556e-06
1.99593e-05
0.000852307
2.45845e-06
1.81224e-05
0.000858605
2.01879e-06
1.37326e-05
0.00086461
4.11619e-06
1.20837e-05
0.000881499
-1.84532e-07
5.17369e-06
0.000843319
5.43961e-06
0.000744155
3.37927e-06
1.89114e-05
0.000644588
1.27381e-06
2.16244e-05
0.000808847
4.70299e-06
2.67804e-05
0.000848674
3.23424e-07
2.6856e-05
0.00084575
3.52524e-06
2.61384e-05
0.000850466
2.38747e-06
2.40047e-05
0.000858713
1.85655e-06
1.88158e-05
0.000865625
4.00881e-06
1.60199e-05
0.000884315
-1.74469e-07
7.37913e-06
0.000846496
5.31277e-06
0.000747913
3.52026e-06
2.37761e-05
0.000619329
1.27942e-06
2.83264e-05
0.000799488
4.62684e-06
3.43214e-05
0.00084191
5.92509e-07
3.48441e-05
0.000841566
3.4862e-06
3.41768e-05
0.000848518
2.44227e-06
3.16127e-05
0.000859306
1.79953e-06
2.54084e-05
0.000867711
3.95264e-06
2.10781e-05
0.000888569
-8.08491e-08
1.02055e-05
0.000851957
5.25751e-06
0.000754202
3.81358e-06
2.99277e-05
0.000587585
1.59673e-06
3.72034e-05
0.000787241
4.78213e-06
4.41722e-05
0.00083366
1.09985e-06
4.52425e-05
0.000836707
3.60966e-06
4.45977e-05
0.000846304
2.68258e-06
4.14646e-05
0.000860356
1.90954e-06
3.39848e-05
0.00087102
4.00314e-06
2.76434e-05
0.000894607
1.45577e-07
1.38625e-05
0.000860261
5.32042e-06
0.000763642
4.31641e-06
3.75082e-05
0.000547439
2.40194e-06
4.88474e-05
0.000770376
5.33005e-06
5.69825e-05
0.000823374
1.96334e-06
5.87129e-05
0.000830797
3.99696e-06
5.80643e-05
0.000843578
3.19544e-06
5.42375e-05
0.000861737
2.26999e-06
4.51395e-05
0.000875702
4.2468e-06
3.62189e-05
0.000902755
6.10835e-07
1.86421e-05
0.000872092
5.58672e-06
0.000777064
5.11205e-06
4.6576e-05
0.000496617
3.99026e-06
6.38497e-05
0.000746381
6.5184e-06
7.354e-05
0.000810172
3.3203e-06
7.60596e-05
0.000823304
4.78622e-06
7.54183e-05
0.000839936
4.10003e-06
7.08016e-05
0.000863165
3.01035e-06
5.96876e-05
0.000881837
4.80552e-06
4.74803e-05
0.000913359
1.43931e-06
2.49595e-05
0.000888276
6.17422e-06
0.000795583
6.32839e-06
5.69085e-05
0.000432734
6.69928e-06
8.26528e-05
0.00071176
8.66875e-06
9.47214e-05
0.000792547
5.36176e-06
9.82402e-05
0.000813431
6.16292e-06
9.77173e-05
0.000834709
5.56156e-06
9.22969e-05
0.000864093
4.30798e-06
7.88021e-05
0.000889314
5.84016e-06
6.23806e-05
0.000926832
2.77929e-06
3.33986e-05
0.00090984
7.24942e-06
0.000820709
8.1567e-06
6.77342e-05
0.000354016
1.0687e-05
0.000105265
0.000661947
1.20724e-05
0.000121359
0.000767809
8.44807e-06
0.000126373
0.000799821
8.4021e-06
0.000126277
0.000826798
7.81517e-06
0.000120241
0.000863525
6.41517e-06
0.000104109
0.00089766
7.60194e-06
8.23632e-05
0.000943551
4.85334e-06
4.48742e-05
0.000938096
9.06051e-06
0.000854595
1.08673e-05
7.74003e-05
0.000260527
1.57668e-05
0.000130457
0.000591839
1.68436e-05
0.000153837
0.000731322
1.29152e-05
0.000161694
0.000779873
1.18974e-05
0.000162739
0.000814366
1.11911e-05
0.000156658
0.000859751
9.66009e-06
0.000137929
0.000905762
1.04375e-05
0.000109652
0.000963647
8.00099e-06
6.08125e-05
0.000974778
1.19773e-05
0.000900421
1.4861e-05
8.29131e-05
0.0001563
2.09619e-05
0.000154801
0.000497238
2.25093e-05
0.000191228
0.000675661
1.90519e-05
0.00020529
0.000748397
1.72254e-05
0.00020913
0.000794155
1.61735e-05
0.000204244
0.000849946
1.44914e-05
0.000183623
0.000911372
1.48159e-05
0.000147811
0.000986578
1.26952e-05
8.38037e-05
0.00102207
1.65357e-05
0.000963359
2.07425e-05
7.88197e-05
5.3518e-05
2.35208e-05
0.000171423
0.000376806
2.76239e-05
0.000229976
0.000589894
2.70403e-05
0.000257449
0.000695462
2.52833e-05
0.000267942
0.000759929
2.3542e-05
0.000266767
0.000829434
2.14879e-05
0.000246223
0.000910391
2.13268e-05
0.000202628
0.00101042
1.9569e-05
0.000118115
0.00108292
2.3484e-05
0.00105199
2.93595e-05
5.49176e-05
-2.42084e-05
2.22281e-05
0.00016979
0.000231641
3.00487e-05
0.00026247
0.000460647
3.6397e-05
0.000315468
0.000605135
3.71583e-05
0.000340891
0.000699704
3.46164e-05
0.000348851
0.000789723
3.15476e-05
0.000333065
0.000895263
3.07123e-05
0.000284099
0.00102979
2.94134e-05
0.000174559
0.00115834
3.39431e-05
0.00118426
4.21725e-05
9.4062e-06
-6.22245e-05
2.78989e-05
0.000141257
6.19202e-05
3.74729e-05
0.000276875
0.000275554
4.92389e-05
0.000372198
0.000456027
5.35836e-05
0.000428384
0.000592617
5.06922e-05
0.000456815
0.000715207
4.58658e-05
0.000455442
0.000852673
4.37527e-05
0.000408312
0.00103386
4.28655e-05
0.000270583
0.00124693
4.8967e-05
0.0013938
6.09479e-05
2.21957e-06
-9.68189e-05
3.1344e-05
0.000104488
-8.84735e-05
4.74369e-05
0.000255348
5.64627e-05
6.78262e-05
0.00039827
0.000234777
7.80315e-05
0.000511602
0.000404024
7.49817e-05
0.000588856
0.000570717
6.69573e-05
0.000628575
0.000750562
6.212e-05
0.000599977
0.00100128
6.09497e-05
0.000478938
0.00129724
7.05177e-05
0.00178401
8.854e-05
7.82471e-05
7.43395e-06
-0.000183336
0.000177752
2.22004e-05
-0.000210859
0.000284228
5.7414e-05
-0.000108059
0.000409217
8.74944e-05
2.17453e-05
0.000561466
9.84058e-05
0.000152966
0.000714574
9.40732e-05
0.000323205
0.000853542
8.56297e-05
0.000525685
0.000906426
8.2331e-05
0.00086583
0.000895497
9.17128e-05
0.00121624
0.000125139
0.00255429
5.49594e-05
0.000971438
2.30135e-05
2.08657e-05
0.00106816
2.08078e-05
6.52773e-06
0.00104995
2.14612e-05
2.29446e-06
0.0010395
2.16327e-05
6.6127e-08
0.0010376
2.17592e-05
-2.17014e-06
0.00103761
2.17577e-05
-6.42581e-06
0.00103953
2.16268e-05
-2.08348e-05
0.00105002
2.14534e-05
-5.51471e-05
0.00106836
2.08224e-05
0.000971268
2.30593e-05
3.78383e-05
0.000941236
2.33957e-05
2.33571e-05
0.00109709
2.32055e-05
1.30827e-05
0.0010768
2.30569e-05
5.8486e-06
0.00106287
2.30732e-05
1.92777e-07
0.00105963
2.32569e-05
-5.46544e-06
0.00105964
2.3261e-05
-1.27345e-05
0.00106294
2.30549e-05
-2.30492e-05
0.0010769
2.30232e-05
-3.74084e-05
0.0010971
2.32267e-05
0.000941539
2.34233e-05
2.22268e-05
0.000918434
1.65291e-05
1.83689e-05
0.00110481
1.8084e-05
1.18246e-05
0.0010893
1.72012e-05
5.76191e-06
0.00107484
1.6948e-05
3.87109e-07
0.00107123
1.7155e-05
-5.02157e-06
0.00107129
1.71098e-05
-1.11438e-05
0.00107498
1.6915e-05
-1.77655e-05
0.00108948
1.7148e-05
-2.16451e-05
0.0011048
1.80713e-05
0.000919318
1.65213e-05
1.31938e-05
0.000901694
1.19931e-05
1.46187e-05
0.00110199
1.41832e-05
9.90448e-06
0.00109347
1.35907e-05
4.88239e-06
0.00107978
1.3449e-05
5.67261e-07
0.00107595
1.357e-05
-3.73403e-06
0.00107596
1.35916e-05
-8.90576e-06
0.00108008
1.33983e-05
-1.38233e-05
0.00109382
1.35603e-05
-1.24177e-05
0.00110186
1.42598e-05
0.000903444
1.19284e-05
8.94327e-06
0.00088849
9.17153e-06
1.23114e-05
0.00109529
1.16939e-05
8.81071e-06
0.00109323
1.11246e-05
4.53323e-06
0.00108125
1.12681e-05
7.51886e-07
0.00107764
1.12138e-05
-2.87449e-06
0.00107717
1.15355e-05
-7.42416e-06
0.0010818
1.12148e-05
-1.12883e-05
0.0010939
1.10675e-05
-7.79071e-06
0.00109476
1.18828e-05
0.000891543
9.077e-06
7.34948e-06
0.000877804
6.88961e-06
1.13776e-05
0.0010873
1.05129e-05
8.088e-06
0.00109176
9.10197e-06
4.42564e-06
0.00108157
9.51586e-06
1.04216e-06
0.00107831
9.50518e-06
-2.19534e-06
0.00107734
9.77418e-06
-6.17457e-06
0.00108244
9.457e-06
-9.79163e-06
0.00109273
9.08013e-06
-5.83319e-06
0.00108669
1.05911e-05
0.000882477
6.86431e-06
7.14976e-06
0.000868722
5.09821e-06
1.09734e-05
0.00107975
9.7939e-06
7.55016e-06
0.00109052
7.511e-06
4.40459e-06
0.00108171
8.27902e-06
1.45491e-06
0.00107854
8.38293e-06
-1.48485e-06
0.00107751
8.30893e-06
-4.9549e-06
0.00108296
8.24003e-06
-8.67603e-06
0.00109175
7.53557e-06
-5.20592e-06
0.00107956
9.69865e-06
0.000875335
5.19562e-06
7.5063e-06
0.00086045
3.83286e-06
1.08832e-05
0.00107313
9.30461e-06
7.35267e-06
0.00108962
6.44903e-06
4.59601e-06
0.00108187
7.51201e-06
1.96304e-06
0.0010786
7.5695e-06
-7.45552e-07
0.00107776
7.32578e-06
-3.87737e-06
0.00108358
7.51893e-06
-7.77204e-06
0.00109126
6.42524e-06
-5.033e-06
0.00107383
9.10272e-06
0.00086948
4.01638e-06
8.03113e-06
0.00085242
2.97753e-06
1.09502e-05
0.0010675
8.84522e-06
7.49654e-06
0.00108891
5.62603e-06
5.05405e-06
0.001082
7.07497e-06
2.60895e-06
0.00107864
6.91187e-06
2.07467e-08
0.00107808
6.63009e-06
-2.91543e-06
0.00108429
7.09517e-06
-6.89454e-06
0.00109111
5.61487e-06
-4.84555e-06
0.00106938
8.65703e-06
0.000864625
3.17066e-06
8.60254e-06
0.000844275
2.37067e-06
1.11119e-05
0.00106277
8.33256e-06
7.92545e-06
0.00108815
4.96885e-06
5.75969e-06
0.00108201
6.76211e-06
3.44012e-06
0.0010787
6.32395e-06
9.11333e-07
0.00107845
6.06272e-06
-1.91894e-06
0.00108511
6.77127e-06
-5.91167e-06
0.00109125
4.89319e-06
-4.49294e-06
0.00106606
8.22873e-06
0.000860683
2.55733e-06
9.29009e-06
0.00083586
1.7888e-06
1.16779e-05
0.00105841
8.00699e-06
8.71152e-06
0.00108736
4.43478e-06
6.72613e-06
0.00108201
6.43226e-06
4.51837e-06
0.00107877
5.80228e-06
2.00048e-06
0.0010789
5.54427e-06
-8.09829e-07
0.00108605
6.52727e-06
-4.88615e-06
0.00109173
4.27044e-06
-3.98015e-06
0.00106357
7.9199e-06
0.00085775
2.03315e-06
1.01166e-05
0.000826976
1.2415e-06
1.26168e-05
0.00105399
7.78708e-06
9.89533e-06
0.00108652
3.9598e-06
8.03421e-06
0.00108199
6.15803e-06
5.91676e-06
0.00107886
5.34743e-06
3.37243e-06
0.00107944
5.07172e-06
4.9622e-07
0.00108712
6.33556e-06
-3.72491e-06
0.0010926
3.70103e-06
-3.26708e-06
0.00106168
7.66555e-06
0.000856007
1.57198e-06
1.11398e-05
0.000817203
8.30829e-07
1.37481e-05
0.00104956
7.42222e-06
1.14955e-05
0.0010854
3.59642e-06
9.77049e-06
0.00108185
5.96211e-06
7.73403e-06
0.00107895
4.95221e-06
5.14812e-06
0.0010801
4.65711e-06
2.11087e-06
0.00108842
6.14287e-06
-2.25302e-06
0.00109387
3.20634e-06
-2.32559e-06
0.00106042
7.35182e-06
0.000855599
1.21977e-06
1.25026e-05
0.000806078
5.20417e-07
1.53617e-05
0.00104495
7.07471e-06
1.36306e-05
0.00108396
3.29256e-06
1.20551e-05
0.00108153
5.80951e-06
1.00954e-05
0.00107903
4.61415e-06
7.43601e-06
0.00108088
4.30088e-06
4.15499e-06
0.00108999
5.98333e-06
-4.45636e-07
0.00109559
2.78739e-06
-1.16579e-06
0.00105986
7.03729e-06
0.000856679
9.51128e-07
1.43139e-05
0.000793084
2.79639e-07
1.76058e-05
0.00103992
6.77858e-06
1.64526e-05
0.00108214
3.02423e-06
1.50549e-05
0.00108095
5.69087e-06
1.31591e-05
0.0010791
4.34091e-06
1.03781e-05
0.00108181
3.99879e-06
6.75904e-06
0.0010919
5.8481e-06
1.78097e-06
0.00109791
2.41933e-06
1.67332e-07
0.00106025
6.73575e-06
0.000859304
7.89853e-07
1.66985e-05
0.000777609
9.80764e-08
2.06652e-05
0.00103421
6.54285e-06
2.01702e-05
0.00107984
2.87754e-06
1.89808e-05
0.00108007
5.61701e-06
1.71385e-05
0.00107914
4.1454e-06
1.41722e-05
0.00108294
3.74572e-06
1.00951e-05
0.00109425
5.73665e-06
4.60022e-06
0.001101
2.11768e-06
1.72644e-06
0.00106203
6.41808e-06
0.000863559
7.69036e-07
1.97806e-05
0.000758951
1.0459e-08
2.48086e-05
0.00102734
6.41869e-06
2.50579e-05
0.00107692
2.87426e-06
2.41063e-05
0.00107883
5.59804e-06
2.23003e-05
0.00107918
4.04142e-06
1.90734e-05
0.00108434
3.56103e-06
1.43974e-05
0.00109715
5.6668e-06
8.15804e-06
0.00110505
1.89223e-06
3.66242e-06
0.0010656
6.12238e-06
0.000869802
8.54293e-07
2.37396e-05
0.000736268
6.93781e-08
3.03674e-05
0.00101874
6.47037e-06
3.14537e-05
0.00107324
3.05432e-06
3.07743e-05
0.0010772
5.66573e-06
2.89801e-05
0.00107923
4.06206e-06
2.54053e-05
0.00108612
3.47949e-06
1.99445e-05
0.0011008
5.64425e-06
1.2673e-05
0.00111035
1.77939e-06
6.15321e-06
0.00107137
5.8843e-06
0.000878623
1.05793e-06
2.87549e-05
0.000708521
4.21597e-07
3.76825e-05
0.00100771
6.74486e-06
3.97771e-05
0.00106862
3.49119e-06
3.94181e-05
0.00107515
5.88194e-06
3.76116e-05
0.00107933
4.25526e-06
3.3586e-05
0.00108839
3.53675e-06
2.71093e-05
0.00110546
5.69701e-06
1.84369e-05
0.00111723
1.81232e-06
9.37232e-06
0.00107988
5.75417e-06
0.000890819
1.40162e-06
3.49739e-05
0.000674487
1.2798e-06
4.71556e-05
0.000993379
7.33309e-06
5.05421e-05
0.0010628
4.2569e-06
5.05777e-05
0.00107265
6.32704e-06
4.87547e-05
0.00107951
4.70211e-06
4.41658e-05
0.00109132
3.7912e-06
3.64087e-05
0.00111143
5.90266e-06
2.58514e-05
0.00112624
2.03635e-06
1.3555e-05
0.00109185
5.78205e-06
0.000907447
1.94603e-06
4.2513e-05
0.000632913
2.85326e-06
5.93772e-05
0.000974369
8.51094e-06
6.44263e-05
0.00105538
5.54004e-06
6.49462e-05
0.00106962
7.15061e-06
6.31282e-05
0.00107976
5.52804e-06
5.78818e-05
0.00109509
4.35235e-06
4.85586e-05
0.00111907
6.36176e-06
3.54952e-05
0.00113808
2.52823e-06
1.90242e-05
0.00110832
6.04476e-06
0.000929895
2.80841e-06
5.13848e-05
0.000582543
5.47184e-06
7.48944e-05
0.00094875
1.06193e-05
8.22081e-05
0.00104572
7.56424e-06
8.33683e-05
0.00106593
8.54289e-06
8.16471e-05
0.00108001
6.88659e-06
7.57165e-05
0.00109981
5.38162e-06
6.45187e-05
0.00112878
7.19537e-06
4.82002e-05
0.00115362
3.43358e-06
2.62827e-05
0.00113069
6.66929e-06
0.000960081
4.15502e-06
6.1368e-05
0.000522065
9.5678e-06
9.39069e-05
0.000914168
1.39534e-05
0.000104706
0.00103255
1.06586e-05
0.000106883
0.0010612
1.08069e-05
0.00010549
0.00108006
9.01871e-06
9.89986e-05
0.00110546
7.10871e-06
8.56765e-05
0.00114096
8.60004e-06
6.52129e-05
0.00117386
4.94447e-06
3.61007e-05
0.00116086
7.86087e-06
0.00100074
6.21228e-06
7.17739e-05
0.000450326
1.54876e-05
0.000116208
0.000867506
1.89068e-05
0.000132613
0.00101377
1.514e-05
0.000136708
0.00105453
1.43274e-05
0.000136187
0.00107935
1.22739e-05
0.000129565
0.00111174
9.86352e-06
0.000114075
0.00115588
1.08785e-05
8.8449e-05
0.00120003
7.32826e-06
4.97101e-05
0.00120152
9.92946e-06
0.00105589
9.31814e-06
8.11845e-05
0.000367026
2.28168e-05
0.000140667
0.000804697
2.56737e-05
0.000166275
0.000985566
2.15037e-05
0.000174268
0.00104393
1.96859e-05
0.000175734
0.00107675
1.71642e-05
0.00016998
0.00111773
1.4114e-05
0.000152796
0.00117329
1.44557e-05
0.000121085
0.00123334
1.09734e-05
6.93745e-05
0.00125632
1.33096e-05
0.00113194
1.39713e-05
8.68608e-05
0.000273613
2.97989e-05
0.000164346
0.000720918
3.37593e-05
0.000205018
0.000941535
3.02601e-05
0.000221019
0.00102541
2.76576e-05
0.000226767
0.00107002
2.4382e-05
0.000223881
0.00112152
2.04512e-05
0.000206544
0.00119198
1.98548e-05
0.000168434
0.00127451
1.64014e-05
9.88642e-05
0.00133068
1.85798e-05
0.00123923
2.08575e-05
8.44927e-05
0.000177688
3.33587e-05
0.000181885
0.000612476
4.09452e-05
0.000246076
0.000872238
4.13717e-05
0.000277704
0.000991528
3.92886e-05
0.000292445
0.00105485
3.49225e-05
0.000296241
0.00111958
2.95774e-05
0.000282463
0.00120872
2.76398e-05
0.000239811
0.00132232
2.41612e-05
0.000148038
0.00142984
2.64768e-05
0.00139852
3.0857e-05
6.81267e-05
0.000103702
3.32813e-05
0.000187331
0.000483648
4.68989e-05
0.000284607
0.000769532
5.45158e-05
0.000343512
0.000931259
5.48022e-05
0.000376209
0.00102348
4.92225e-05
0.000393827
0.0011061
4.15782e-05
0.000391525
0.00121703
3.76165e-05
0.000351066
0.00137149
3.40491e-05
0.000233101
0.00155933
3.73258e-05
0.0016476
4.4868e-05
4.75995e-05
6.18417e-05
2.49234e-05
0.00017602
0.000351794
5.05956e-05
0.000307574
0.000638094
6.75071e-05
0.00040884
0.000835431
7.24093e-05
0.000477614
0.000963352
6.61528e-05
0.000523373
0.00107179
5.53317e-05
0.000549316
0.00120473
4.8336e-05
0.000523281
0.00141408
4.4266e-05
0.000421307
0.00168109
5.05601e-05
0.00209481
6.25545e-05
6.83083e-05
-1.04425e-05
1.00078e-05
0.000181853
3.43002e-05
0.000225607
0.000321488
6.10062e-05
0.000494541
0.000457821
7.20006e-05
0.000714342
0.000578501
6.8744e-05
0.000872119
0.000680662
5.76922e-05
0.00100583
0.000777318
4.87999e-05
0.00114473
0.000808296
4.46391e-05
0.00142063
0.00080226
5.63215e-05
0.00172237
8.08274e-05
0.00294128
5.71487e-05
0.000957504
8.34439e-06
2.15157e-05
0.00104996
6.46284e-06
6.42068e-06
0.00103017
6.35975e-06
2.14954e-06
0.00101951
6.36996e-06
5.83789e-08
0.00101744
6.38248e-06
-2.04325e-06
0.00101745
6.38214e-06
-6.33994e-06
0.00101953
6.36907e-06
-2.1521e-05
0.00103025
6.36121e-06
-5.74363e-05
0.00105025
6.46987e-06
0.000957254
8.35717e-06
3.98122e-05
0.000927823
1.32112e-05
2.31959e-05
0.0010768
1.28957e-05
1.27206e-05
0.00105107
1.25483e-05
5.81291e-06
0.00103688
1.25193e-05
1.72489e-07
0.00103371
1.25336e-05
-5.48072e-06
0.00103375
1.25268e-05
-1.24428e-05
0.00103695
1.2513e-05
-2.29201e-05
0.00105112
1.25457e-05
-3.92476e-05
0.00107681
1.29206e-05
0.000928181
1.32192e-05
2.34306e-05
0.000909379
1.1484e-05
1.74654e-05
0.00108928
1.14903e-05
1.12557e-05
0.00106345
1.09373e-05
5.7345e-06
0.00104839
1.08654e-05
3.74795e-07
0.00104524
1.08905e-05
-5.0143e-06
0.00104527
1.08814e-05
-1.06126e-05
0.00104853
1.08485e-05
-1.69123e-05
0.00106357
1.09221e-05
-2.28493e-05
0.00108925
1.14961e-05
0.000910336
1.14821e-05
1.344e-05
0.000898621
9.25265e-06
1.40081e-05
0.00109342
9.40464e-06
9.2655e-06
0.00107293
8.77469e-06
4.7032e-06
0.0010576
8.71133e-06
5.6016e-07
0.00105411
8.75542e-06
-3.56883e-06
0.00105415
8.75893e-06
-8.26636e-06
0.00105785
8.69149e-06
-1.31704e-05
0.0010732
8.75605e-06
-1.26696e-05
0.00109353
9.41649e-06
0.000900306
9.25029e-06
7.92691e-06
0.000892088
7.71938e-06
1.17206e-05
0.00109318
8.07691e-06
8.23036e-06
0.00107996
7.50509e-06
4.24068e-06
0.00106519
7.58144e-06
7.5806e-07
0.00106104
7.67967e-06
-2.6096e-06
0.00106124
7.73132e-06
-6.81049e-06
0.00106562
7.57108e-06
-1.05174e-05
0.00108043
7.47486e-06
-6.78437e-06
0.00109351
8.10399e-06
0.000894804
7.75299e-06
5.08699e-06
0.000887408
6.42411e-06
9.94365e-06
0.00109171
7.06142e-06
7.33154e-06
0.00108526
6.33861e-06
4.04384e-06
0.00107134
6.57496e-06
1.07572e-06
0.0010667
6.73773e-06
-1.8474e-06
0.00106705
6.80766e-06
-5.40541e-06
0.00107201
6.55161e-06
-8.25566e-06
0.001086
6.28265e-06
-3.58769e-06
0.00109232
7.04594e-06
0.000891501
6.53587e-06
3.85562e-06
0.000883271
5.31827e-06
8.66701e-06
0.00109044
6.17705e-06
6.45409e-06
0.00108977
5.13322e-06
3.90278e-06
0.00107656
5.53475e-06
1.52551e-06
0.00107165
5.73128e-06
-1.02801e-06
0.00107207
5.76771e-06
-3.87493e-06
0.00107752
5.49708e-06
-6.40509e-06
0.00109091
5.08655e-06
-2.00316e-06
0.00109143
6.11439e-06
0.000889196
5.45107e-06
3.33751e-06
0.00087919
4.51281e-06
7.96242e-06
0.00108955
5.49974e-06
5.91956e-06
0.00109404
4.14993e-06
3.98423e-06
0.00108121
4.72048e-06
2.05621e-06
0.00107617
4.89878e-06
-2.01808e-07
0.00107667
4.90703e-06
-2.48206e-06
0.00108256
4.68231e-06
-5.01105e-06
0.00109566
4.12268e-06
-1.08284e-06
0.00109111
5.42184e-06
0.000887448
4.63088e-06
3.18486e-06
0.000874969
3.9445e-06
7.67031e-06
0.0010888
5.04444e-06
5.77995e-06
0.00109804
3.43407e-06
4.37217e-06
0.00108543
4.18519e-06
2.69606e-06
0.00108038
4.30279e-06
6.18012e-07
0.00108101
4.29535e-06
-1.23649e-06
0.00108728
4.14906e-06
-3.75835e-06
0.00110032
3.3983e-06
-3.49915e-07
0.00109136
4.92803e-06
0.000886076
4.13986e-06
3.2667e-06
0.000870495
3.50233e-06
7.66751e-06
0.00108794
4.71077e-06
5.98665e-06
0.00110172
2.88773e-06
5.02871e-06
0.00108925
3.81687e-06
3.49968e-06
0.00108431
3.8417e-06
1.53418e-06
0.00108513
3.82648e-06
-3.233e-09
0.00109174
3.77397e-06
-2.56058e-06
0.00110486
2.82176e-06
3.63081e-07
0.00109203
4.54985e-06
0.000885134
3.806e-06
3.56204e-06
0.000865516
3.12348e-06
7.93673e-06
0.001087
4.4848e-06
6.53094e-06
0.00110503
2.44194e-06
5.9357e-06
0.00109268
3.51409e-06
4.5365e-06
0.00108798
3.44267e-06
2.63647e-06
0.00108907
3.42117e-06
1.32713e-06
0.00109601
3.47888e-06
-1.30499e-06
0.00110933
2.34304e-06
1.13338e-06
0.00109314
4.28558e-06
0.00088472
3.51974e-06
4.12473e-06
0.000859749
2.79362e-06
8.52906e-06
0.00108595
4.34508e-06
7.43531e-06
0.00110793
2.06151e-06
7.16685e-06
0.00109575
3.25908e-06
5.88679e-06
0.00109143
3.09647e-06
4.01372e-06
0.00109286
3.06106e-06
2.84939e-06
0.00110017
3.24195e-06
8.44661e-08
0.00111379
1.91684e-06
1.95424e-06
0.00109474
4.09571e-06
0.000884909
3.27293e-06
5.0472e-06
0.000852901
2.53282e-06
9.46668e-06
0.00108465
4.20726e-06
8.76584e-06
0.00111039
1.74116e-06
8.81985e-06
0.0010985
3.05476e-06
7.64381e-06
0.00109465
2.80266e-06
5.76688e-06
0.00109656
2.74577e-06
4.6307e-06
0.00110431
3.04698e-06
1.65656e-06
0.00111835
1.52672e-06
2.83956e-06
0.00109688
3.9364e-06
0.000885846
3.05304e-06
6.36868e-06
0.000844625
2.31924e-06
1.09309e-05
0.00108297
4.08402e-06
1.06354e-05
0.00111238
1.48792e-06
1.10057e-05
0.00110095
2.8892e-06
9.92058e-06
0.0010977
2.55633e-06
8.00009e-06
0.0011002
2.47192e-06
6.7818e-06
0.00110852
2.89077e-06
3.51181e-06
0.00112311
1.18622e-06
3.84418e-06
0.00109968
3.80369e-06
0.00088773
2.83822e-06
8.15995e-06
0.00083447
2.15583e-06
1.30211e-05
0.00108079
3.98584e-06
1.31759e-05
0.00111385
1.28572e-06
1.38677e-05
0.00110308
2.75263e-06
1.28675e-05
0.00110058
2.35279e-06
1.08528e-05
0.00110388
2.23424e-06
9.43277e-06
0.00111291
2.76591e-06
5.72939e-06
0.00112823
8.9625e-07
5.01137e-06
0.00110331
3.71245e-06
0.000890826
2.62667e-06
1.05222e-05
0.000821845
2.07112e-06
1.58714e-05
0.00107796
3.9013e-06
1.65792e-05
0.00111476
1.14887e-06
1.76009e-05
0.00110491
2.65088e-06
1.66823e-05
0.00110333
2.19732e-06
1.45061e-05
0.00110765
2.03203e-06
1.27429e-05
0.00111763
2.66626e-06
8.44889e-06
0.00113388
6.47348e-07
6.43619e-06
0.001108
3.62742e-06
0.000895472
2.47808e-06
1.35839e-05
0.000806059
2.07173e-06
1.97393e-05
0.00107423
3.87159e-06
2.10982e-05
0.00111503
1.10968e-06
2.24545e-05
0.00110643
2.60066e-06
2.16097e-05
0.00110599
2.10185e-06
1.91946e-05
0.00111163
1.87553e-06
1.69273e-05
0.00112284
2.59899e-06
1.18483e-05
0.00114029
4.42772e-07
8.23954e-06
0.00111408
3.53144e-06
0.00090207
2.41043e-06
1.74812e-05
0.000786306
2.18706e-06
2.49137e-05
0.00106919
3.94091e-06
2.70391e-05
0.00111462
1.20981e-06
2.87395e-05
0.00110763
2.627e-06
2.79615e-05
0.00110861
2.09073e-06
2.52203e-05
0.00111594
1.78755e-06
2.22428e-05
0.00112876
2.57806e-06
1.61048e-05
0.00114777
3.16825e-07
1.05549e-05
0.00112193
3.45755e-06
0.000911197
2.39814e-06
2.23771e-05
0.000761701
2.4846e-06
3.1746e-05
0.00106225
4.17374e-06
3.47873e-05
0.00111343
1.50345e-06
3.68518e-05
0.00110854
2.7719e-06
3.61413e-05
0.00111125
2.19899e-06
3.29737e-05
0.00112072
1.79817e-06
2.90416e-05
0.00113564
2.62333e-06
2.15106e-05
0.0011567
2.92525e-07
1.3547e-05
0.00113209
3.43005e-06
0.000923591
2.4636e-06
2.84365e-05
0.000731287
3.07966e-06
4.06505e-05
0.00105256
4.662e-06
4.48132e-05
0.00111131
2.06466e-06
4.72786e-05
0.00110917
3.09764e-06
4.66588e-05
0.00111395
2.48075e-06
4.2962e-05
0.00112612
1.95203e-06
3.78113e-05
0.00114379
2.77451e-06
2.84792e-05
0.00116754
3.95054e-07
1.74315e-05
0.00114532
3.47405e-06
0.000940215
2.66105e-06
3.57016e-05
0.00069409
4.15729e-06
5.20319e-05
0.00103903
5.54987e-06
5.76683e-05
0.00110807
2.99824e-06
6.06142e-05
0.00110952
3.7015e-06
6.01509e-05
0.00111678
3.01947e-06
5.58515e-05
0.00113231
2.31987e-06
4.9193e-05
0.00115357
3.0973e-06
3.75248e-05
0.00118092
6.80119e-07
2.25044e-05
0.00116261
3.64542e-06
0.000962382
3.05275e-06
4.41156e-05
0.000649305
5.93689e-06
6.63119e-05
0.00102026
7.04152e-06
7.39939e-05
0.00110334
4.45678e-06
7.75759e-05
0.00110961
4.71986e-06
7.74108e-05
0.00111975
3.92779e-06
7.25219e-05
0.00113943
3.00597e-06
6.40586e-05
0.00116541
3.67959e-06
4.93921e-05
0.00119765
1.23864e-06
2.92281e-05
0.00118527
4.03321e-06
0.000991942
3.73012e-06
5.34494e-05
0.000596547
8.65727e-06
8.36329e-05
0.00099452
9.34221e-06
9.4413e-05
0.00109644
6.62085e-06
9.89925e-05
0.00110934
6.33783e-06
9.94282e-05
0.00112282
5.36081e-06
9.41422e-05
0.00114752
4.15449e-06
8.36544e-05
0.00117971
4.64245e-06
6.52003e-05
0.00121872
2.19015e-06
3.83123e-05
0.00121514
4.75225e-06
0.00103155
4.83227e-06
6.31882e-05
0.000536138
1.24734e-05
0.000103907
0.000959852
1.26911e-05
0.000119473
0.00108617
9.69122e-06
0.000125798
0.0011084
8.78816e-06
0.000127433
0.00112578
7.52698e-06
0.000122288
0.00115643
5.95183e-06
0.000109806
0.00119678
6.14779e-06
8.66848e-05
0.00124535
3.68253e-06
5.08752e-05
0.00125478
5.96883e-06
0.00108512
6.53827e-06
7.24698e-05
0.000469012
1.72265e-05
0.000126196
0.000914425
1.72089e-05
0.000149319
0.0010705
1.38904e-05
0.000158952
0.00110595
1.23478e-05
0.000162919
0.00112814
1.0683e-05
0.000159078
0.00116562
8.62073e-06
0.000145214
0.00121658
8.38705e-06
0.000116712
0.00127881
5.88736e-06
6.89857e-05
0.00130783
7.87637e-06
0.00115895
9.06652e-06
7.99459e-05
0.000396499
2.21165e-05
0.000148789
0.000856472
2.27089e-05
0.000183534
0.00104646
1.94097e-05