/*--------------------------------*- C++ -*----------------------------------*\
| =========                 |                                                 |
| \\      /  F ield         | OpenFOAM: The Open Source CFD Toolbox           |
|  \\    /   O peration     | Version:  4.1                                   |
|   \\  /    A nd           | Web:      www.OpenFOAM.org                      |
|    \\/     M anipulation  |                                                 |
\*---------------------------------------------------------------------------*/
FoamFile
{
    version     2.0;
    format      ascii;
    class       volScalarField;
    location    "35";
    object      T;
}
// * * * * * * * * * * * * * * * * * * * * * * * * * * * * * * * * * * * * * //

dimensions      [0 0 0 1 0 0 0];

internalField   nonuniform List<scalar> 
12000
(
0.999582
1.00358
0.999806
1.00054
1.00055
1.00055
1.00053
0.999805
1.00359
0.999557
0.994974
0.99627
0.995536
0.996987
0.997018
0.99701
0.996976
0.995535
0.996303
0.994929
0.99936
0.994191
0.997386
0.998247
0.998149
0.998148
0.99824
0.997404
0.994221
0.999291
1.00382
0.995549
1.00081
1.00047
1.00027
1.00025
1.00047
1.00083
0.995537
1.00372
1.00491
0.99624
1.00233
1.00114
1.00113
1.00103
1.00114
1.00235
0.996184
1.00477
1.00432
0.996134
1.00242
1.00077
1.0011
1.00099
1.00077
1.00241
0.996089
1.00414
1.00355
0.996114
1.00217
1.00023
1.00082
1.0008
1.00021
1.00214
0.996107
1.00333
1.00286
0.996296
1.00189
0.999752
1.00051
1.00056
0.99972
1.00184
0.996325
1.00262
1.00213
0.996451
1.00151
0.999268
1.00016
1.00024
0.999225
1.00144
0.996502
1.00186
1.00133
0.996463
1.00097
0.998726
0.999709
0.999801
0.998688
1.0009
0.996527
1.00104
1.00048
0.996263
1.00029
0.998139
0.999154
0.999259
0.998086
1.00024
0.996357
1.00015
0.999523
0.995832
0.999478
0.997456
0.998466
0.998588
0.997386
0.999458
0.995967
0.999198
0.998391
0.995142
0.998439
0.996585
0.997578
0.997719
0.99653
0.998477
0.995314
0.998082
0.996935
0.994048
0.997073
0.995415
0.996391
0.996557
0.995407
0.997205
0.994309
0.996673
0.994985
0.992408
0.995259
0.993811
0.994783
0.994986
0.993891
0.995535
0.992845
0.99484
0.992342
0.990043
0.992797
0.991604
0.992597
0.992859
0.991837
0.993327
0.990795
0.992451
0.988732
0.986716
0.989458
0.988587
0.989646
0.990004
0.989076
0.990424
0.988005
0.989349
0.983798
0.982127
0.984951
0.9845
0.9857
0.986211
0.985417
0.986646
0.984304
0.985359
0.977059
0.975897
0.978904
0.979028
0.980487
0.981243
0.980645
0.981799
0.979507
0.9803
0.967879
0.967538
0.970848
0.971781
0.973677
0.974823
0.974516
0.975679
0.973425
0.973981
0.955369
0.956354
0.96018
0.962253
0.964861
0.966622
0.966757
0.968058
0.965862
0.96621
0.938313
0.941387
0.946129
0.949802
0.953532
0.956235
0.957063
0.958685
0.95662
0.956797
0.915135
0.921344
0.927685
0.933573
0.939019
0.943149
0.94507
0.947299
0.945504
0.94555
0.883927
0.894465
0.903553
0.912447
0.920406
0.926667
0.930296
0.933597
0.932309
0.932254
0.842658
0.858435
0.871961
0.88488
0.896379
0.905783
0.91207
0.917209
0.916813
0.916548
0.789268
0.810574
0.830628
0.848819
0.865064
0.878945
0.889268
0.897516
0.898791
0.898006
0.720929
0.747975
0.776637
0.801531
0.823924
0.843938
0.860226
0.873653
0.87834
0.875259
0.644745
0.675606
0.709857
0.740865
0.769986
0.797321
0.821537
0.842951
0.856233
0.849506
0.563231
0.593382
0.629841
0.665511
0.701237
0.736333
0.770444
0.802451
0.836484
0.82036
0.472369
0.496608
0.534398
0.574587
0.614672
0.653854
0.695669
0.734696
0.816561
0.835868
1.00359
1.00675
1.00301
1.00391
1.00387
1.00387
1.00391
1.00301
1.00678
1.00354
0.996294
0.996859
0.996389
0.998262
0.998217
0.998216
0.998247
0.996384
0.996955
0.996236
0.994225
0.989731
0.992947
0.993834
0.993631
0.993621
0.993816
0.992961
0.989816
0.994121
0.995594
0.987806
0.993428
0.992797
0.992432
0.992431
0.992776
0.993454
0.987888
0.995445
0.996295
0.987392
0.9943
0.992636
0.992404
0.992463
0.992617
0.994325
0.987495
0.996107
0.996204
0.987441
0.99458
0.992388
0.992559
0.992641
0.992361
0.994595
0.987518
0.996017
0.996206
0.988048
0.99476
0.992299
0.992914
0.992961
0.992264
0.994762
0.988077
0.996037
0.996418
0.989095
0.995126
0.992519
0.993462
0.993481
0.992473
0.995101
0.989067
0.996249
0.996614
0.990189
0.995518
0.992896
0.994035
0.994049
0.992834
0.99548
0.990124
0.996416
0.996678
0.991057
0.995766
0.993234
0.994471
0.994498
0.993152
0.995715
0.990983
0.996415
0.996544
0.991664
0.995817
0.993423
0.9947
0.994744
0.99334
0.995754
0.991591
0.996213
0.996191
0.991985
0.995631
0.99342
0.994687
0.994752
0.993348
0.995571
0.991917
0.995802
0.995601
0.991903
0.995155
0.993162
0.994382
0.994474
0.993102
0.995124
0.991879
0.995138
0.994625
0.991345
0.994308
0.992555
0.993711
0.993839
0.992521
0.99434
0.991412
0.994122
0.993113
0.990205
0.992949
0.991471
0.992568
0.992745
0.991499
0.993113
0.990419
0.992672
0.990879
0.988317
0.990927
0.989757
0.990819
0.991065
0.989909
0.991324
0.988779
0.990664
0.987656
0.985476
0.988037
0.987222
0.988297
0.988642
0.987599
0.988835
0.986376
0.987913
0.983094
0.981398
0.984011
0.983626
0.984787
0.985284
0.984385
0.985479
0.983052
0.984241
0.976746
0.975705
0.978499
0.978668
0.98003
0.980759
0.980055
0.981058
0.978627
0.979465
0.968022
0.967891
0.971049
0.97197
0.973708
0.974794
0.974372
0.975351
0.972905
0.973399
0.956087
0.957323
0.961104
0.963062
0.965433
0.967064
0.967066
0.968121
0.965677
0.965848
0.939833
0.943149
0.947963
0.951352
0.954724
0.957185
0.95783
0.959129
0.956735
0.956613
0.917923
0.924224
0.930714
0.936089
0.940975
0.944683
0.946312
0.948112
0.94587
0.94549
0.888726
0.899078
0.9082
0.916284
0.923379
0.928942
0.932077
0.93478
0.932866
0.932255
0.850355
0.865838
0.878922
0.890636
0.900846
0.909124
0.914556
0.918804
0.917504
0.916541
0.800791
0.822209
0.840951
0.857411
0.871834
0.883975
0.892851
0.89971
0.899602
0.897951
0.738221
0.765635
0.791844
0.81441
0.834331
0.851754
0.865665
0.876869
0.879263
0.875117
0.664421
0.696499
0.730107
0.759413
0.785746
0.809664
0.830355
0.848374
0.857625
0.84928
0.581212
0.615552
0.654905
0.690961
0.724125
0.755084
0.784311
0.811377
0.838261
0.819225
0.492884
0.524195
0.565497
0.607177
0.64629
0.682598
0.719637
0.753263
0.823283
0.829267
0.999818
1.00301
0.998896
0.999618
0.999577
0.999575
0.999614
0.998896
1.00306
0.999753
0.995566
0.996398
0.995998
0.997899
0.997904
0.997897
0.997876
0.995981
0.996491
0.995496
0.997433
0.992962
0.996503
0.997534
0.997358
0.997345
0.997508
0.996521
0.993058
0.997299
1.00087
0.993444
0.999416
0.998768
0.998423
0.998415
0.998743
0.999444
0.993505
1.00072
1.00239
0.994315
1.00161
0.999801
0.999692
0.9997
0.999773
1.00163
0.994341
1.00224
1.00249
0.994596
1.00222
0.999881
1.00031
1.00031
0.999851
1.00223
0.994587
1.00234
1.00225
0.994774
1.00207
0.999474
1.00041
1.00039
0.999445
1.00207
0.994738
1.00209
1.00199
0.995129
1.0018
0.999066
1.00035
1.00032
0.999041
1.0018
0.995069
1.00181
1.00162
0.995512
1.0015
0.998746
1.00022
1.00021
0.998716
1.00149
0.995423
1.00143
1.0011
0.995749
1.00109
0.998412
0.999979
0.999984
0.99837
1.00107
0.995652
1.00089
1.00046
0.995781
1.00053
0.997986
0.999573
0.999601
0.99794
1.00051
0.995697
1.0002
0.999683
0.995573
0.999785
0.997434
0.998983
0.999038
0.997389
0.999773
0.99552
0.999383
0.998713
0.995056
0.998829
0.996697
0.998174
0.998261
0.996662
0.998845
0.995075
0.998375
0.997417
0.99416
0.997572
0.995685
0.997075
0.997202
0.995679
0.997649
0.994281
0.997091
0.995656
0.992749
0.99588
0.994272
0.99558
0.995757
0.994329
0.996085
0.99304
0.995411
0.993252
0.990658
0.993598
0.992305
0.993557
0.9938
0.992484
0.994036
0.991236
0.993203
0.989947
0.987684
0.990531
0.989599
0.990838
0.991177
0.989989
0.991361
0.988737
0.990317
0.98541
0.983562
0.98642
0.98592
0.987218
0.987698
0.986665
0.987892
0.985386
0.986579
0.979204
0.977934
0.980937
0.980979
0.982445
0.983139
0.982306
0.983431
0.981003
0.981809
0.970754
0.970333
0.973662
0.974416
0.976212
0.977235
0.976676
0.977765
0.975384
0.975825
0.959311
0.960166
0.964064
0.965789
0.968149
0.969674
0.969514
0.970671
0.968327
0.968429
0.943863
0.946649
0.951486
0.954545
0.957808
0.960096
0.96053
0.961908
0.959627
0.959421
0.923153
0.928734
0.935096
0.939991
0.944629
0.948064
0.949396
0.951229
0.949085
0.948596
0.895606
0.905068
0.913849
0.921245
0.927895
0.93303
0.935724
0.938371
0.936498
0.93574
0.859506
0.873968
0.886408
0.897176
0.906664
0.914271
0.919032
0.92306
0.921675
0.920505
0.813164
0.833478
0.851111
0.866339
0.879669
0.890756
0.898592
0.904942
0.904489
0.902524
0.755337
0.781792
0.806131
0.82703
0.845331
0.861119
0.873412
0.883629
0.885204
0.880518
0.686605
0.718296
0.749986
0.777469
0.801658
0.823209
0.841462
0.857738
0.865288
0.855752
0.608887
0.643708
0.682145
0.716699
0.747296
0.775116
0.800945
0.825268
0.84928
0.827473
0.524716
0.55966
0.602699
0.64335
0.679429
0.711791
0.744511
0.774037
0.840551
0.839799
1.00055
1.00391
0.999619
1.00039
1.00036
1.00036
1.00039
0.999616
1.00397
1.00048
0.997019
0.998275
0.997903
1.00002
1.00004
1.00003
0.999992
0.997883
0.998371
0.996947
0.998304
0.993852
0.99754
0.998824
0.998644
0.998629
0.998795
0.997561
0.993948
0.998155
1.00056
0.992812
0.998771
0.998218
0.99783
0.997818
0.998193
0.9988
0.992861
1.00039
1.00122
0.992666
0.999806
0.997928
0.997761
0.997757
0.997905
0.99983
0.992681
1.00105
1.00085
0.99242
0.999878
0.997357
0.997722
0.997728
0.997331
0.999894
0.99244
1.00064
1.00033
0.992307
0.999464
0.996605
0.997475
0.997488
0.996577
0.999462
0.992331
1.0001
0.999857
0.992509
0.999055
0.995994
0.997199
0.997221
0.995962
0.999032
0.992506
0.999633
0.999381
0.992861
0.998729
0.995603
0.996999
0.997036
0.995563
0.998695
0.99284
0.999143
0.998867
0.99317
0.998387
0.995327
0.996815
0.996871
0.995274
0.998344
0.993151
0.998582
0.998303
0.993337
0.997956
0.995053
0.996559
0.996636
0.994983
0.997911
0.993336
0.997959
0.997645
0.993312
0.997396
0.994707
0.996174
0.996275
0.994628
0.997365
0.993342
0.997236
0.996816
0.993022
0.996648
0.99421
0.995604
0.995735
0.994136
0.996655
0.993097
0.996357
0.995696
0.992366
0.995616
0.993461
0.994768
0.994935
0.993409
0.995692
0.992511
0.995238
0.994133
0.991215
0.99417
0.992328
0.993552
0.993767
0.992331
0.994368
0.991482
0.993756
0.991933
0.989405
0.992154
0.990656
0.991818
0.992096
0.990765
0.992566
0.989904
0.991758
0.98885
0.986731
0.989368
0.988258
0.989399
0.989766
0.988558
0.990142
0.987642
0.989088
0.984566
0.982921
0.985554
0.984902
0.986089
0.986589
0.985528
0.986924
0.984528
0.985581
0.978668
0.977632
0.980392
0.980305
0.98164
0.98234
0.981472
0.982722
0.980382
0.981055
0.970612
0.970427
0.973483
0.974118
0.975757
0.976764
0.976158
0.97733
0.97501
0.975319
0.959682
0.960741
0.964326
0.965915
0.968083
0.969561
0.969333
0.970526
0.968214
0.96818
0.944934
0.947835
0.952309
0.95518
0.958197
0.960386
0.960719
0.962079
0.959792
0.959446
0.925204
0.93075
0.936658
0.941269
0.945581
0.948837
0.950012
0.951758
0.949556
0.948923
0.899045
0.908244
0.916423
0.923381
0.929588
0.934421
0.936865
0.939333
0.937327
0.936413
0.864855
0.878774
0.890398
0.900521
0.909399
0.916513
0.920872
0.924592
0.922956
0.921609
0.821051
0.840577
0.85712
0.871454
0.883936
0.894252
0.901438
0.907284
0.906403
0.904199
0.766442
0.792007
0.814989
0.834749
0.851891
0.866503
0.877759
0.887183
0.888075
0.883044
0.700979
0.732084
0.762496
0.788755
0.811443
0.831301
0.847971
0.863045
0.869577
0.859374
0.625871
0.660941
0.698794
0.732231
0.76099
0.786543
0.810183
0.832837
0.855649
0.832911
0.543286
0.579733
0.623355
0.662863
0.696458
0.725827
0.755827
0.783143
0.848916
0.846483
1.00056
1.00387
0.999579
1.00036
1.00032
1.00032
1.00035
0.999575
1.00393
1.0005
0.997051
0.998234
0.997913
1.00005
1.00005
1.00004
1.00002
0.997892
0.998338
0.996979
0.998212
0.993656
0.997374
0.998655
0.998449
0.998434
0.998621
0.997393
0.993756
0.998067
1.00033
0.992487
0.998452
0.997847
0.997419
0.997405
0.997818
0.998475
0.992528
1.00017
1.00112
0.992526
0.999732
0.997787
0.997584
0.997578
0.99776
0.999749
0.99253
1.00096
1.00109
0.992703
1.00033
0.997758
0.998119
0.998119
0.997728
1.00034
0.992701
1.00089
1.00085
0.993032
1.00042
0.997521
0.998427
0.998432
0.997486
1.0004
0.993009
1.00066
1.0006
0.993548
1.00034
0.997259
0.998532
0.998547
0.997216
1.0003
0.993488
1.00042
1.0003
0.994081
1.0002
0.997073
0.998561
0.998593
0.99702
1.00016
0.994011
1.00009
0.999909
0.994482
0.999947
0.996904
0.998501
0.998553
0.996836
0.999907
0.994423
0.999653
0.999417
0.994674
0.999532
0.996659
0.998285
0.998361
0.996577
0.999508
0.994649
0.999087
0.998786
0.994626
0.998937
0.996282
0.997875
0.997978
0.996193
0.998941
0.994636
0.998392
0.997942
0.994283
0.998123
0.995718
0.997239
0.997373
0.995633
0.998171
0.994332
0.997526
0.996784
0.99356
0.99701
0.994884
0.996314
0.996486
0.994822
0.997128
0.993679
0.996385
0.99518
0.992334
0.995477
0.993659
0.995002
0.995223
0.993655
0.995719
0.992591
0.994855
0.992945
0.990451
0.993375
0.991896
0.993172
0.993458
0.992001
0.993832
0.990957
0.992807
0.989839
0.987709
0.990508
0.989414
0.990662
0.991038
0.989711
0.991327
0.988642
0.990096
0.985548
0.983849
0.986631
0.985987
0.987273
0.987781
0.986611
0.988041
0.985488
0.986558
0.979668
0.978538
0.981432
0.98134
0.982763
0.98347
0.9825
0.983789
0.981318
0.982014
0.971666
0.971351
0.974522
0.975136
0.976843
0.977852
0.977152
0.978365
0.975939
0.976276
0.960857
0.96174
0.965415
0.96696
0.969168
0.970636
0.970317
0.97155
0.969157
0.969154
0.946336
0.948997
0.953514
0.956309
0.959326
0.961487
0.961723
0.963118
0.960772
0.960458
0.926985
0.932197
0.93807
0.942562
0.946818
0.950014
0.951076
0.952845
0.950597
0.949996
0.901404
0.910146
0.918164
0.924947
0.931026
0.935747
0.938046
0.940511
0.938462
0.937578
0.868037
0.881363
0.892645
0.902516
0.911176
0.918097
0.92225
0.925922
0.924232
0.922904
0.825304
0.844139
0.860116
0.87409
0.886247
0.896252
0.903128
0.90885
0.907879
0.905671
0.771925
0.796816
0.819024
0.83829
0.854974
0.869116
0.87991
0.889086
0.889822
0.884718
0.707477
0.738161
0.767788
0.793448
0.81553
0.834727
0.850743
0.865388
0.871657
0.861237
0.632828
0.667955
0.705321
0.738141
0.76616
0.790879
0.813684
0.835684
0.858121
0.834751
0.550492
0.587371
0.630998
0.669897
0.702581
0.73095
0.760014
0.786416
0.851883
0.848485
1.00056
1.00387
0.999578
1.00036
1.00032
1.00032
1.00035
0.999575
1.00393
1.0005
0.99705
0.998234
0.997912
1.00005
1.00005
1.00004
1.00001
0.997892
0.998336
0.996977
0.998213
0.993652
0.997371
0.998651
0.998444
0.998429
0.998619
0.997392
0.993752
0.998064
1.00033
0.99248
0.998449
0.997844
0.997413
0.9974
0.997815
0.998473
0.992525
1.00017
1.00113
0.992517
0.999733
0.997786
0.997582
0.997572
0.997757
0.999749
0.992529
1.00095
1.00109
0.992695
1.00034
0.997756
0.998117
0.998113
0.997727
1.00034
0.992699
1.00088
1.00089
0.993012
1.00041
0.997517
0.998423
0.998428
0.997485
1.0004
0.993004
1.00066
1.00066
0.993514
1.00033
0.99725
0.998526
0.998542
0.997212
1.0003
0.993481
1.00043
1.00034
0.994055
1.0002
0.997062
0.998555
0.998588
0.997014
1.00016
0.994011
1.00009
0.999917
0.99447
0.999955
0.996891
0.998495
0.998548
0.996831
0.999908
0.994435
0.999628
0.999401
0.994673
0.999545
0.996646
0.998279
0.998356
0.996573
0.999504
0.99466
0.999064
0.998765
0.994625
0.998949
0.996268
0.997867
0.997973
0.996187
0.998932
0.994642
0.99838
0.997915
0.994281
0.998131
0.995704
0.997228
0.997366
0.995625
0.998155
0.994333
0.997527
0.996754
0.993554
0.997013
0.994867
0.996299
0.996476
0.99481
0.997103
0.993673
0.996401
0.995149
0.992322
0.995474
0.993639
0.994984
0.995209
0.993636
0.995687
0.99258
0.994873
0.992904
0.990431
0.993363
0.991872
0.993149
0.993437
0.991975
0.993797
0.990943
0.992813
0.989786
0.98768
0.990486
0.989382
0.990633
0.99101
0.989679
0.991289
0.988627
0.990084
0.98548
0.983808
0.986597
0.985946
0.987233
0.987744
0.986572
0.987996
0.985468
0.986534
0.979581
0.978481
0.981381
0.981286
0.98271
0.983419
0.982451
0.983733
0.981288
0.98198
0.971556
0.97127
0.974448
0.975062
0.976772
0.977785
0.97709
0.978293
0.975893
0.976232
0.960713
0.961625
0.965308
0.96686
0.969073
0.970547
0.970237
0.971458
0.969088
0.969095
0.946141
0.948833
0.953363
0.956172
0.959197
0.961365
0.961617
0.962998
0.960674
0.960376
0.926709
0.931965
0.937858
0.942371
0.94664
0.949845
0.950929
0.952684
0.950458
0.949882
0.901006
0.909816
0.91787
0.924679
0.930776
0.93551
0.937839
0.940295
0.938265
0.937417
0.867471
0.880892
0.892237
0.90214
0.910824
0.917767
0.921957
0.92563
0.923958
0.922674
0.824545
0.843483
0.859553
0.873571
0.885758
0.895792
0.902715
0.90845
0.907506
0.905348
0.771004
0.795962
0.818274
0.837591
0.854307
0.868482
0.879331
0.88853
0.88931
0.884266
0.706492
0.737151
0.766853
0.792559
0.814666
0.833897
0.849976
0.864658
0.870997
0.86068
0.631947
0.6669
0.704223
0.737043
0.765065
0.789796
0.812649
0.834689
0.857189
0.833969
0.549628
0.58632
0.629844
0.668728
0.701415
0.729799
0.758909
0.785382
0.850919
0.847828
1.00055
1.00391
0.999617
1.00039
1.00036
1.00035
1.00039
0.999613
1.00397
1.00048
0.997018
0.998265
0.99789
1.00001
1.00002
1.00002
0.999975
0.997868
0.998363
0.996935
0.998299
0.993848
0.997533
0.998814
0.998628
0.998615
0.998782
0.997549
0.993938
0.998157
1.00058
0.992801
0.99877
0.998214
0.99782
0.997809
0.998191
0.9988
0.992851
1.0004
1.00129
0.992618
0.999807
0.997928
0.997759
0.997752
0.99791
0.999833
0.992669
1.00107
1.00092
0.992364
0.999893
0.997357
0.997727
0.997723
0.997336
0.999892
0.992391
1.00071
1.00035
0.992275
0.999491
0.996603
0.997484
0.997487
0.996577
0.999461
0.992259
1.00017
0.999839
0.992496
0.999087
0.995992
0.99721
0.997224
0.995956
0.999039
0.992446
0.999662
0.999347
0.992863
0.998761
0.9956
0.997012
0.997041
0.995553
0.998704
0.992793
0.999142
0.998824
0.993178
0.998413
0.99532
0.996826
0.996874
0.995259
0.998356
0.993108
0.998572
0.998259
0.993348
0.997973
0.995042
0.996566
0.996636
0.994968
0.99793
0.993294
0.99794
0.997607
0.993327
0.997405
0.994693
0.996177
0.996274
0.994609
0.997388
0.993297
0.997212
0.996776
0.993037
0.99665
0.994195
0.995602
0.995731
0.994113
0.996682
0.993053
0.996325
0.995649
0.992377
0.995611
0.993444
0.994759
0.994927
0.993381
0.995724
0.992472
0.995188
0.994079
0.991217
0.994153
0.992305
0.993536
0.993752
0.992296
0.994399
0.991448
0.99369
0.991867
0.989393
0.992119
0.990622
0.991792
0.992073
0.990721
0.992587
0.98987
0.991681
0.988762
0.986699
0.989311
0.988209
0.989359
0.989732
0.988503
0.990148
0.987602
0.988997
0.984446
0.982859
0.985471
0.984832
0.98603
0.98654
0.985461
0.986911
0.984479
0.985475
0.978497
0.977529
0.980275
0.980204
0.981553
0.98227
0.981386
0.982684
0.980318
0.980937
0.970363
0.97026
0.973316
0.973974
0.975631
0.976661
0.976048
0.977261
0.974923
0.975184
0.959318
0.960476
0.964086
0.96571
0.967903
0.969411
0.969187
0.970415
0.968093
0.968012
0.944404
0.947429
0.95196
0.954884
0.957935
0.960165
0.960515
0.961907
0.95962
0.959231
0.924427
0.930133
0.936147
0.940836
0.945197
0.948506
0.949717
0.951498
0.949307
0.948638
0.897913
0.907317
0.915666
0.92274
0.929018
0.933922
0.936429
0.938945
0.936959
0.936027
0.863231
0.877395
0.889279
0.899572
0.908551
0.915765
0.920216
0.924013
0.922416
0.921067
0.818808
0.838598
0.855494
0.870064
0.88269
0.89314
0.900455
0.906419
0.905621
0.903434
0.763608
0.789354
0.812716
0.832765
0.850097
0.86488
0.876305
0.885887
0.886929
0.881935
0.697776
0.728849
0.759546
0.786091
0.808999
0.829063
0.845944
0.861215
0.868012
0.857966
0.622591
0.657276
0.695131
0.728755
0.757728
0.783485
0.807325
0.830149
0.853275
0.830756
0.539843
0.575828
0.619257
0.658894
0.692743
0.72238
0.752609
0.780131
0.846287
0.844741
0.999818
1.00301
0.998895
0.999617
0.999576
0.999574
0.999611
0.998891
1.00306
0.999751
0.995568
0.996395
0.995982
0.997882
0.997889
0.997882
0.997855
0.995963
0.99649
0.995491
0.997449
0.992975
0.99652
0.997552
0.997375
0.997365
0.997526
0.996543
0.993079
0.997319
1.00089
0.993444
0.999438
0.998788
0.998445
0.998436
0.998766
0.999469
0.993505
1.00075
1.00242
0.994296
1.00163
0.999811
0.99971
0.999699
0.999792
1.00165
0.994311
1.00228
1.0025
0.994564
1.00222
0.999872
1.00029
1.00029
0.999856
1.00224
0.994546
1.00236
1.00225
0.994735
1.00205
0.999449
1.00036
1.00037
0.999424
1.00207
0.994711
1.00207
1.00196
0.995093
1.00178
0.999036
1.00027
1.00029
0.998996
1.00178
0.995045
1.00177
1.00158
0.995477
1.00147
0.998708
1.00013
1.00017
0.998654
1.00146
0.995397
1.00139
1.00107
0.995711
1.00105
0.998372
0.999885
0.999933
0.998301
1.00103
0.995614
1.00086
1.00043
0.995743
1.00047
0.99795
0.99948
0.999546
0.997865
1.00046
0.995642
1.00018
0.999636
0.995534
0.999734
0.997402
0.998893
0.998983
0.997307
0.999731
0.995458
0.999367
0.998657
0.995013
0.998778
0.99667
0.998086
0.998203
0.996579
0.998811
0.995014
0.998352
0.99736
0.994107
0.997513
0.995655
0.996986
0.997138
0.995594
0.997612
0.994222
0.99705
0.995597
0.992682
0.99581
0.994231
0.995488
0.995686
0.994241
0.996043
0.992982
0.995352
0.993164
0.990584
0.993517
0.992248
0.993458
0.993719
0.992389
0.993986
0.991176
0.993132
0.989812
0.987599
0.990432
0.989519
0.990727
0.991082
0.989883
0.991291
0.988671
0.99023
0.985224
0.983434
0.986287
0.985806
0.987085
0.987582
0.986543
0.987791
0.985305
0.986476
0.978937
0.977736
0.980749
0.980816
0.982274
0.98299
0.982158
0.983295
0.980893
0.981685
0.970366
0.970032
0.973391
0.974183
0.975982
0.977036
0.976487
0.977587
0.975234
0.975661
0.958731
0.959713
0.963672
0.965453
0.967832
0.969402
0.969263
0.970432
0.968121
0.968201
0.942998
0.945969
0.950909
0.954055
0.957355
0.959708
0.96018
0.961576
0.959336
0.959102
0.92186
0.927712
0.934242
0.939264
0.943971
0.947494
0.948893
0.950755
0.948665
0.948148
0.8937
0.90353
0.912571
0.920153
0.926917
0.932174
0.93498
0.937683
0.935881
0.935106
0.856744
0.871658
0.884489
0.895525
0.90519
0.912971
0.917908
0.922044
0.920763
0.919594
0.809244
0.830091
0.848276
0.863868
0.877455
0.888787
0.896885
0.903428
0.903145
0.90122
0.750173
0.777097
0.802089
0.823429
0.84207
0.858185
0.870832
0.881343
0.88321
0.8786
0.680536
0.712364
0.74464
0.772557
0.797108
0.819032
0.837716
0.854387
0.862423
0.853154
0.601879
0.636387
0.675199
0.710204
0.741187
0.769351
0.795571
0.820265
0.844927
0.823438
0.516902
0.551123
0.594189
0.635261
0.671876
0.704753
0.73792
0.767809
0.835042
0.836002
1.0036
1.00678
1.00306
1.00396
1.00392
1.00392
1.00396
1.00306
1.00684
1.00355
0.996314
0.996942
0.996473
0.998347
0.998306
0.9983
0.998329
0.996469
0.997066
0.996274
0.994229
0.989808
0.993032
0.993907
0.993703
0.993694
0.993891
0.993053
0.989931
0.994154
0.995587
0.987838
0.993461
0.992815
0.992465
0.992458
0.992796
0.993477
0.987892
0.995485
0.996286
0.987377
0.994285
0.992626
0.992458
0.992447
0.992602
0.994292
0.987375
0.996152
0.99619
0.987397
0.994533
0.992349
0.992605
0.992595
0.992339
0.994535
0.987343
0.99603
0.996189
0.98799
0.994695
0.992232
0.992905
0.99291
0.992231
0.994693
0.987903
0.995999
0.996395
0.989031
0.995053
0.99244
0.993407
0.993423
0.992421
0.995041
0.988922
0.996173
0.996583
0.990126
0.995445
0.992804
0.993953
0.99398
0.992766
0.995425
0.990002
0.996326
0.996618
0.991021
0.995698
0.993136
0.99438
0.994418
0.993081
0.995666
0.990878
0.996324
0.996468
0.991649
0.995745
0.993335
0.994609
0.994662
0.99327
0.995709
0.991483
0.996136
0.996133
0.991953
0.995548
0.993341
0.994595
0.994673
0.993269
0.995532
0.991792
0.995736
0.995546
0.991853
0.995059
0.993085
0.994286
0.994394
0.993019
0.995098
0.991759
0.995061
0.994549
0.991285
0.9942
0.992474
0.993605
0.993753
0.992433
0.994309
0.991306
0.994029
0.99301
0.990128
0.992829
0.991377
0.992451
0.992649
0.991402
0.993064
0.990315
0.992567
0.990727
0.988219
0.990789
0.989641
0.990685
0.990954
0.989799
0.991263
0.988668
0.990547
0.987429
0.985343
0.987868
0.987075
0.988136
0.988507
0.987467
0.98875
0.986252
0.987775
0.982785
0.981197
0.983786
0.983431
0.984586
0.985111
0.98422
0.985351
0.982907
0.984071
0.976328
0.975393
0.978181
0.978397
0.979767
0.980529
0.979842
0.980867
0.978445
0.979253
0.96744
0.967421
0.970598
0.971592
0.973353
0.97448
0.974088
0.975079
0.972664
0.973128
0.955261
0.956631
0.960465
0.962533
0.964944
0.966632
0.966678
0.967747
0.965351
0.965491
0.938642
0.942148
0.947057
0.950602
0.954039
0.956577
0.957293
0.958615
0.956289
0.956139
0.916195
0.922782
0.929424
0.935003
0.939999
0.943816
0.945557
0.947402
0.945252
0.944853
0.886199
0.896972
0.90635
0.914695
0.921965
0.92769
0.930994
0.933788
0.932004
0.931396
0.846623
0.862694
0.876219
0.88827
0.89875
0.907285
0.912979
0.917403
0.916297
0.915374
0.795184
0.817402
0.83696
0.853899
0.868719
0.881256
0.890529
0.897706
0.8979
0.896364
0.730716
0.758796
0.786066
0.809266
0.829732
0.847728
0.862217
0.873939
0.876857
0.87291
0.656032
0.688296
0.722625
0.752472
0.779327
0.803849
0.825251
0.844005
0.854145
0.846336
0.571248
0.605254
0.645036
0.681637
0.715352
0.74682
0.776709
0.804665
0.833055
0.814721
0.481974
0.512173
0.552958
0.594787
0.63449
0.671385
0.709065
0.743432
0.8154
0.824449
0.999563
1.00354
0.999751
1.00048
1.00049
1.00049
1.00047
0.99975
1.00356
0.999502
0.994937
0.996225
0.995478
0.996921
0.99695
0.996945
0.996907
0.995475
0.996278
0.994859
0.999313
0.994111
0.997288
0.99814
0.998041
0.998035
0.998128
0.99731
0.994169
0.999153
1.00378
0.995479
1.00073
1.00039
1.00015
1.00015
1.00039
1.00076
0.995517
1.0036
1.00488
0.996199
1.00227
1.00108
1.00097
1.00098
1.00109
1.00231
0.996206
1.00472
1.00429
0.996125
1.0024
1.00076
1.00097
1.00098
1.00073
1.00242
0.996102
1.00415
1.00353
0.996133
1.00219
1.00026
1.00079
1.00079
1.0002
1.00217
0.996098
1.00339
1.00285
0.996333
1.00193
0.999792
1.00056
1.00056
0.999743
1.00187
0.996301
1.00269
1.00213
0.996501
1.00155
0.999318
1.00024
1.00025
0.999275
1.00147
0.996483
1.00194
1.00133
0.996494
1.00101
0.998782
0.9998
0.999834
0.998745
1.00093
0.996514
1.0011
1.00047
0.996282
1.00034
0.998177
0.999239
0.999295
0.998141
1.00026
0.996358
1.0002
0.999505
0.99587
0.999526
0.997478
0.998546
0.998615
0.997449
0.999454
0.995976
0.999238
0.998367
0.995187
0.998481
0.996597
0.997653
0.997742
0.996587
0.998446
0.995307
0.998107
0.996902
0.99408
0.997109
0.995419
0.996461
0.996577
0.995453
0.997175
0.994288
0.996682
0.994941
0.992423
0.995272
0.993807
0.99484
0.994999
0.993922
0.995509
0.992818
0.994837
0.992273
0.990028
0.992786
0.991585
0.992633
0.992861
0.991849
0.993288
0.990758
0.992437
0.988617
0.986653
0.989411
0.98854
0.989651
0.989987
0.989064
0.990379
0.98795
0.989321
0.983609
0.982004
0.984844
0.98441
0.985665
0.986171
0.985377
0.986599
0.984223
0.98531
0.976751
0.975688
0.97871
0.978871
0.980393
0.981168
0.980568
0.981742
0.979396
0.980217
0.967366
0.967182
0.970514
0.971513
0.97349
0.974679
0.974381
0.975583
0.973267
0.973843
0.954517
0.955751
0.959624
0.961803
0.964531
0.966357
0.966527
0.967879
0.965627
0.965988
0.93691
0.94037
0.945233
0.949059
0.952968
0.955775
0.956676
0.95837
0.956267
0.956449
0.912878
0.919652
0.926257
0.932374
0.938067
0.942373
0.944427
0.946771
0.944969
0.945019
0.880396
0.89169
0.901289
0.910532
0.918823
0.925378
0.929243
0.932738
0.931504
0.931462
0.837349
0.854017
0.868405
0.881845
0.893793
0.903662
0.910358
0.915833
0.91561
0.915389
0.781074
0.8036
0.825095
0.844088
0.860962
0.87554
0.88652
0.895329
0.896989
0.896325
0.711109
0.738866
0.768707
0.794443
0.817623
0.838581
0.855849
0.870185
0.875672
0.872884
0.635758
0.666527
0.700185
0.731365
0.761153
0.78942
0.814782
0.837446
0.852144
0.846221
0.551673
0.580917
0.61741
0.653033
0.689182
0.724997
0.760208
0.793718
0.830355
0.816127
0.459745
0.481086
0.517629
0.558303
0.599264
0.639197
0.681588
0.721351
0.806314
0.831351
0.414518
0.433158
0.466566
0.506382
0.547197
0.586839
0.630941
0.668353
0.758916
0.809595
0.386305
0.402928
0.434393
0.472693
0.512369
0.551143
0.594943
0.632533
0.718557
0.804427
0.358919
0.374145
0.403826
0.439891
0.477331
0.51394
0.555731
0.59412
0.671009
0.784081
0.332714
0.346768
0.374879
0.408345
0.442829
0.476459
0.514738
0.552666
0.618831
0.738957
0.307897
0.320852
0.347483
0.378222
0.409509
0.439737
0.473592
0.509083
0.563844
0.677646
0.284575
0.296403
0.321511
0.349367
0.377214
0.403792
0.433013
0.465115
0.508898
0.609367
0.262762
0.273403
0.296797
0.321655
0.345971
0.368749
0.393235
0.421378
0.456055
0.540018
0.2424
0.251793
0.273214
0.295
0.315797
0.334807
0.354747
0.378453
0.405794
0.472906
0.223387
0.23152
0.250713
0.269391
0.286626
0.301852
0.317326
0.336439
0.357607
0.409821
0.205638
0.212531
0.22926
0.244705
0.25809
0.26934
0.280472
0.295129
0.311013
0.350584
0.189047
0.194671
0.20867
0.220595
0.229967
0.237337
0.24462
0.25515
0.266608
0.295671
0.173435
0.177714
0.188668
0.196903
0.202525
0.206481
0.210535
0.217453
0.225277
0.245966
0.158599
0.161458
0.169222
0.173943
0.176312
0.177437
0.17888
0.182837
0.187766
0.202045
0.144379
0.145823
0.150525
0.15215
0.151816
0.150702
0.150155
0.151837
0.154551
0.164119
0.130705
0.130855
0.132805
0.131825
0.129346
0.126572
0.1246
0.124625
0.125688
0.131874
0.117616
0.116632
0.116209
0.113144
0.109062
0.105144
0.102216
0.101076
0.10091
0.104654
0.105154
0.103201
0.10083
0.0961911
0.0910002
0.0863645
0.0828363
0.0808846
0.0797839
0.0817
0.0933176
0.0906053
0.086721
0.080982
0.0751118
0.0700918
0.0662163
0.0637013
0.0619021
0.0624539
0.082128
0.078879
0.0739032
0.0674862
0.0612992
0.0561457
0.0521214
0.049245
0.0469601
0.0464128
0.0716289
0.0680533
0.0623745
0.0556451
0.0494311
0.044349
0.0403089
0.0371766
0.03458
0.0331987
0.0618752
0.0581513
0.0521133
0.0453752
0.0393612
0.0344717
0.0304962
0.0272656
0.0245667
0.0226666
0.0529201
0.0491871
0.0430807
0.0365691
0.0309156
0.0262933
0.0225085
0.0193742
0.016786
0.0146773
0.0448046
0.0411635
0.0352193
0.0291115
0.0239045
0.019648
0.0161842
0.013323
0.0110143
0.00901411
0.0375496
0.0340702
0.0284572
0.0228788
0.0181742
0.014369
0.0113325
0.00887439
0.00694987
0.00527259
0.0311525
0.0278823
0.0227169
0.0177249
0.0135717
0.0102796
0.0077382
0.00574018
0.00422937
0.00295271
0.0255891
0.0225585
0.0179126
0.0135219
0.00994768
0.0072004
0.00516656
0.00361644
0.00249173
0.0015954
0.0208173
0.0180417
0.0139495
0.0101542
0.00716077
0.00494942
0.00338343
0.0022265
0.00142841
0.000840342
0.0167792
0.0142653
0.0107197
0.00750654
0.00507053
0.00334806
0.00217996
0.0013448
0.00080162
0.000435227
0.0134055
0.0111639
0.00812852
0.00546712
0.00353787
0.00223426
0.00138577
0.000801088
0.000443337
0.000222479