/*--------------------------------*- C++ -*----------------------------------*\
| =========                 |                                                 |
| \\      /  F ield         | OpenFOAM: The Open Source CFD Toolbox           |
|  \\    /   O peration     | Version:  4.1                                   |
|   \\  /    A nd           | Web:      www.OpenFOAM.org                      |
|    \\/     M anipulation  |                                                 |
\*---------------------------------------------------------------------------*/
FoamFile
{
    version     2.0;
    format      ascii;
    class       volScalarField;
    location    "400";
    object      epsilon;
}
// * * * * * * * * * * * * * * * * * * * * * * * * * * * * * * * * * * * * * //

dimensions      [0 2 -3 0 0 0 0];

internalField   nonuniform List<scalar> 
12000
(
0.319661
0.311462
0.310292
0.309986
0.309911
0.309912
0.309988
0.31028
0.311354
0.319549
0.0652399
0.0639115
0.0629325
0.0624847
0.0623496
0.0623504
0.0624879
0.0629445
0.0639312
0.0652802
0.0176507
0.0177626
0.0174025
0.0171701
0.017085
0.0170847
0.0171691
0.0174025
0.0177628
0.0176699
0.00615405
0.00636665
0.006236
0.00612913
0.00608293
0.0060833
0.00612901
0.00623267
0.00637463
0.00616264
0.00263494
0.00277854
0.00272322
0.00267005
0.00264407
0.00264463
0.00267073
0.00272
0.00277998
0.00263877
0.00132457
0.00141279
0.00139356
0.00136688
0.0013519
0.00135201
0.00136769
0.00139302
0.00141315
0.00132696
0.000750523
0.000802363
0.000798872
0.000782041
0.000771834
0.000772853
0.000783071
0.000797464
0.000801577
0.000753047
0.000466124
0.000500517
0.000500451
0.000493145
0.000487872
0.00048716
0.000493887
0.000502649
0.000500342
0.000468878
0.000310502
0.000335378
0.000337861
0.000335075
0.000330001
0.000331137
0.00033592
0.00034142
0.000335407
0.000313419
0.00021855
0.000237913
0.000241526
0.000240158
0.000236906
0.000237329
0.000240788
0.000244731
0.000238284
0.000221577
0.000160718
0.000176074
0.000181177
0.000179638
0.000177257
0.000177602
0.000180369
0.0001832
0.000176806
0.000163857
0.000122473
0.000135061
0.000140383
0.000138955
0.000137401
0.000137665
0.000139717
0.000141785
0.000136233
0.000125729
9.6109e-05
0.000106686
0.000111663
0.0001108
0.000109504
0.000109797
0.000111418
0.000113043
0.00010766
9.94689e-05
7.71845e-05
8.60474e-05
9.07706e-05
9.0439e-05
8.9309e-05
8.97717e-05
9.10665e-05
9.22396e-05
8.73118e-05
8.07271e-05
6.32066e-05
7.1077e-05
7.55776e-05
7.54274e-05
7.45429e-05
7.49682e-05
7.6072e-05
7.70803e-05
7.2846e-05
6.70614e-05
5.26409e-05
6.00107e-05
6.4175e-05
6.40597e-05
6.34665e-05
6.38519e-05
6.47537e-05
6.56986e-05
6.20651e-05
5.6854e-05
4.44197e-05
5.13916e-05
5.52935e-05
5.52447e-05
5.48404e-05
5.51468e-05
5.59639e-05
5.69039e-05
5.38288e-05
4.90945e-05
3.78484e-05
4.45836e-05
4.82205e-05
4.82471e-05
4.80163e-05
4.83802e-05
4.91165e-05
5.00312e-05
4.73647e-05
4.30384e-05
3.24479e-05
3.9018e-05
4.24941e-05
4.26211e-05
4.25498e-05
4.28927e-05
4.35761e-05
4.45572e-05
4.22505e-05
3.83139e-05
2.78721e-05
3.43549e-05
3.77217e-05
3.79818e-05
3.8071e-05
3.85206e-05
3.91797e-05
4.01087e-05
3.81005e-05
3.45052e-05
2.38673e-05
3.02913e-05
3.37156e-05
3.41486e-05
3.43504e-05
3.47895e-05
3.54596e-05
3.65037e-05
3.48213e-05
3.15448e-05
2.02278e-05
2.66723e-05
3.02007e-05
3.08704e-05
3.12227e-05
3.18421e-05
3.2529e-05
3.35387e-05
3.21139e-05
2.91035e-05
1.67919e-05
2.32437e-05
2.71306e-05
2.80616e-05
2.85153e-05
2.91546e-05
2.99354e-05
3.1119e-05
3.0053e-05
2.73073e-05
1.33866e-05
1.9917e-05
2.42032e-05
2.55326e-05
2.62181e-05
2.70858e-05
2.79037e-05
2.90821e-05
2.83069e-05
2.58277e-05
9.89402e-06
1.63541e-05
2.14475e-05
2.32089e-05
2.40186e-05
2.49354e-05
2.59913e-05
2.74865e-05
2.71179e-05
2.49234e-05
6.0769e-06
1.25752e-05
1.83575e-05
2.09439e-05
2.21873e-05
2.33724e-05
2.44367e-05
2.60541e-05
2.60379e-05
2.42838e-05
2.45552e-06
8.21973e-06
1.50265e-05
1.83116e-05
1.99517e-05
2.13692e-05
2.28934e-05
2.50324e-05
2.54738e-05
2.41731e-05
1.37448e-06
4.47325e-06
1.05911e-05
1.54366e-05
1.79681e-05
1.97708e-05
2.12105e-05
2.37813e-05
2.50477e-05
2.47744e-05
2.23299e-06
3.85672e-06
5.86653e-06
9.35431e-06
1.38382e-05
1.72996e-05
1.95719e-05
2.25461e-05
2.49584e-05
2.50419e-05
4.60079e-06
6.69585e-06
7.49863e-06
7.69397e-06
8.51595e-06
1.14039e-05
1.50928e-05
2.02124e-05
2.41249e-05
2.76246e-05
0.31146
0.7306
0.75239
0.752199
0.752061
0.752055
0.752208
0.752397
0.731071
0.311585
0.0639083
0.0820745
0.0730048
0.0719486
0.0717274
0.0717792
0.0721564
0.0722601
0.0822053
0.0641949
0.0177598
0.0290837
0.0284742
0.0281074
0.0280023
0.0279957
0.0281154
0.0281415
0.0288287
0.0179019
0.00636424
0.0126256
0.0124555
0.0122681
0.0121897
0.0121708
0.0121992
0.012177
0.0126816
0.00645073
0.00277645
0.00558849
0.00556192
0.00545287
0.00540832
0.00539009
0.00541015
0.00530126
0.00574633
0.00281911
0.00141112
0.00251909
0.00233037
0.00228886
0.00227817
0.00225854
0.00226069
0.00219278
0.00246249
0.00143373
0.000800722
0.00117794
0.00143074
0.00136509
0.0013323
0.00133909
0.00135897
0.00126761
0.00158228
0.00081312
0.000499169
0.00056987
0.000738974
0.00070613
0.000675893
0.000692329
0.000703008
0.000629438
0.000957766
0.000508156
0.000334115
0.000287158
0.000404195
0.000381185
0.000369797
0.000383281
0.000385147
0.000345925
0.000538303
0.000340481
0.000236698
0.000153501
0.000176885
0.000145203
0.000158581
0.000133401
0.000143207
0.000149492
0.0002547
0.000241487
0.000174866
8.67167e-05
7.58066e-05
4.92684e-05
6.9047e-05
5.09064e-05
5.69932e-05
6.84529e-05
0.000136316
0.00017889
0.000133836
5.20092e-05
3.46063e-05
2.35886e-05
2.56579e-05
2.56593e-05
2.5899e-05
2.98212e-05
7.56639e-05
0.000137711
0.000105426
4.05056e-05
1.23827e-05
1.50679e-05
9.46962e-06
1.59864e-05
1.54208e-05
1.63336e-05
5.48197e-05
0.00010876
8.47702e-05
3.19848e-05
8.82873e-06
1.1741e-05
6.59819e-06
1.1492e-05
1.11124e-05
1.04197e-05
4.13738e-05
8.82072e-05
6.97415e-05
2.49889e-05
9.0191e-06
1.01537e-05
7.46734e-06
9.4877e-06
9.27343e-06
8.57913e-06
3.03696e-05
7.36117e-05
5.85809e-05
2.05874e-05
8.90011e-06
9.1272e-06
7.82315e-06
8.08565e-06
7.91555e-06
7.71108e-06
2.33943e-05
6.28296e-05
4.98573e-05
1.8153e-05
8.84214e-06
8.05002e-06
7.25712e-06
7.1338e-06
7.02576e-06
7.12522e-06
1.90281e-05
5.4489e-05
4.29187e-05
1.65677e-05
8.26733e-06
7.23323e-06
6.82737e-06
6.51743e-06
6.40503e-06
6.48567e-06
1.58654e-05
4.8008e-05
3.72308e-05
1.57092e-05
7.59814e-06
6.5177e-06
6.30081e-06
5.86177e-06
5.92058e-06
6.21337e-06
1.39065e-05
4.26819e-05
3.24234e-05
1.51272e-05
6.98363e-06
6.05325e-06
5.77844e-06
5.31897e-06
5.64822e-06
5.85255e-06
1.24194e-05
3.84617e-05
2.82664e-05
1.47564e-05
6.42631e-06
5.70921e-06
5.34424e-06
5.03568e-06
5.45193e-06
5.631e-06
1.11509e-05
3.48088e-05
2.45555e-05
1.45969e-05
6.32341e-06
5.49341e-06
5.29029e-06
5.14163e-06
5.32669e-06
5.45273e-06
1.00968e-05
3.19635e-05
2.11808e-05
1.47255e-05
6.62258e-06
5.3707e-06
5.18523e-06
4.91263e-06
5.17837e-06
5.35384e-06
9.15144e-06
2.93013e-05
1.79604e-05
1.51931e-05
6.85811e-06
5.37783e-06
5.059e-06
4.83478e-06
5.01469e-06
5.12803e-06
8.37248e-06
2.73256e-05
1.48165e-05
1.52828e-05
7.77882e-06
5.56487e-06
5.22503e-06
5.04596e-06
5.15062e-06
5.202e-06
7.73974e-06
2.52219e-05
1.15511e-05
1.61104e-05
9.1727e-06
5.95932e-06
5.53667e-06
5.38439e-06
5.42266e-06
5.47958e-06
7.30216e-06
2.3756e-05
8.26636e-06
1.69378e-05
1.11183e-05
7.01833e-06
6.03542e-06
5.8214e-06
5.87845e-06
5.77571e-06
7.38278e-06
2.20781e-05
4.98656e-06
1.89562e-05
1.38077e-05
8.2648e-06
7.03006e-06
6.48581e-06
6.48408e-06
6.77657e-06
7.40669e-06
2.06117e-05
3.5707e-06
2.22494e-05
1.87083e-05
1.16211e-05
8.31014e-06
7.64376e-06
7.69954e-06
7.80158e-06
1.08141e-05
1.97393e-05
3.90624e-06
2.52216e-05
2.66129e-05
1.81709e-05
1.18896e-05
9.42861e-06
9.41431e-06
1.00976e-05
1.57126e-05
1.89096e-05
0.310291
0.752381
0.770765
0.770309
0.770226
0.770145
0.770324
0.770727
0.752779
0.310564
0.062929
0.0725693
0.0574868
0.0567407
0.0567529
0.0566901
0.0584222
0.0573758
0.0728196
0.0632813
0.0174021
0.0283322
0.0186551
0.0182591
0.0178608
0.0182986
0.016502
0.018836
0.0283976
0.0175396
0.00623285
0.0124008
0.00184178
0.00114295
0.000696606
0.000397532
0.00111488
0.00106655
0.0124714
0.00631446
0.00271954
0.0054449
7.63976e-05
1.59978e-05
2.15548e-06
8.51769e-07
2.59032e-06
2.02158e-05
0.00548758
0.00275908
0.00139167
0.00246512
7.76377e-06
8.66903e-07
1.32688e-05
3.56919e-07
1.32844e-06
2.91282e-06
0.00249641
0.00141067
0.000795524
0.00103507
1.56584e-05
1.63907e-06
3.75016e-06
2.80304e-06
1.83556e-05
4.28137e-06
0.00103948
0.000807404
0.000501177
0.000690478
5.36929e-06
1.12266e-06
4.84935e-06
2.92011e-06
1.57771e-05
9.47036e-06
0.000730172
0.000506863
0.000338547
0.000372069
1.41941e-06
1.10082e-06
1.19478e-06
5.18854e-06
1.16297e-05
2.26658e-06
0.000400957
0.000342741
0.000241891
0.000197514
4.30112e-07
1.21263e-06
4.28399e-07
3.55571e-06
4.88609e-06
7.07437e-07
0.000223632
0.000245565
0.000180737
0.000126849
1.54524e-07
6.54274e-07
2.41654e-07
2.33454e-06
1.02439e-06
1.54054e-07
0.000102094
0.000183767
0.000139425
8.4038e-05
2.78057e-07
3.94822e-07
1.31477e-07
1.48274e-06
4.41814e-07
1.44722e-07
5.1684e-05
0.000142007
0.000110627
5.02626e-05
2.99411e-07
2.30058e-07
1.40538e-07
1.07754e-06
2.9052e-07
1.17978e-07
2.87871e-05
0.000112973
9.00357e-05
2.69516e-05
5.91195e-07
1.11696e-07
1.20374e-07
6.40257e-07
1.92061e-07
1.05668e-07
1.79493e-05
9.21858e-05
7.46257e-05
1.74416e-05
5.89734e-07
1.72147e-07
9.34195e-08
3.91184e-07
1.73876e-07
7.20539e-08
1.3115e-05
7.67637e-05
6.29336e-05
1.2453e-05
6.01484e-07
1.55248e-07
7.65116e-08
2.92776e-07
1.55095e-07
1.43498e-07
1.02249e-05
6.53238e-05
5.3825e-05
1.13713e-05
5.60071e-07
1.72953e-07
5.03179e-08
2.50124e-07
1.56445e-07
1.11057e-07
8.20923e-06
5.64112e-05
4.65093e-05
1.01263e-05
5.72979e-07
1.43875e-07
2.73246e-08
2.24751e-07
1.63471e-07
1.35108e-07
6.99482e-06
4.95734e-05
4.05003e-05
9.36517e-06
5.69515e-07
1.25726e-07
4.32845e-08
2.09393e-07
1.71448e-07
1.45043e-07
6.15567e-06
4.38795e-05
3.54432e-05
9.19712e-06
5.91346e-07
1.4045e-07
1.25062e-07
1.89846e-07
1.80679e-07
1.56575e-07
5.50664e-06
3.95394e-05
3.11066e-05
9.30253e-06
7.55268e-07
1.59838e-07
2.07476e-07
1.92152e-07
1.96866e-07
1.63278e-07
4.9432e-06
3.55889e-05
2.72713e-05
9.49465e-06
9.66073e-07
1.93648e-07
1.89578e-07
2.07201e-07
2.17328e-07
1.73595e-07
4.40061e-06
3.27117e-05
2.38471e-05
1.00433e-05
1.25435e-06
2.56587e-07
2.32788e-07
2.29692e-07
2.42854e-07
1.98595e-07
3.90035e-06
2.96966e-05
2.06556e-05
1.06344e-05
1.67429e-06
3.61068e-07
2.75503e-07
2.54869e-07
2.71796e-07
2.10835e-07
3.37905e-06
2.76975e-05
1.7689e-05
1.16863e-05
2.11507e-06
5.00721e-07
3.16734e-07
2.90216e-07
3.06118e-07
2.44694e-07
2.92354e-06
2.51052e-05
1.47897e-05
1.25546e-05
2.96598e-06
6.89658e-07
4.08152e-07
3.36783e-07
3.48371e-07
2.91989e-07
2.42268e-06
2.35397e-05
1.19994e-05
1.31341e-05
4.46074e-06
1.09617e-06
5.4516e-07
4.2578e-07
4.16328e-07
3.59769e-07
2.07878e-06
2.09344e-05
9.22197e-06
1.39329e-05
6.45908e-06
1.60447e-06
8.09542e-07
5.58629e-07
5.24808e-07
4.50586e-07
1.68866e-06
1.92331e-05
6.76978e-06
1.54201e-05
8.95464e-06
2.94367e-06
1.11183e-06
7.4225e-07
6.89387e-07
6.57301e-07
1.61126e-06
1.57155e-05
5.28507e-06
1.73496e-05
1.31033e-05
4.87495e-06
2.12771e-06
1.17357e-06
9.43844e-07
9.22788e-07
2.44161e-06
1.38497e-05
0.309985
0.752198
0.770298
0.76985
0.769696
0.769691
0.769839
0.770355
0.752588
0.310278
0.0624818
0.0718328
0.0568015
0.0559919
0.0560005
0.0560466
0.0562233
0.056195
0.0720611
0.0628297
0.0171678
0.0280616
0.018168
0.0177371
0.017496
0.017444
0.0174088
0.0187644
0.0281302
0.0173001
0.00612662
0.0122409
0.00126363
5.96524e-05
0.000161504
0.000543982
0.000594735
0.000158836
0.0122829
0.00620017
0.0026671
0.00536889
2.08957e-05
8.71227e-07
7.17324e-06
3.84525e-07
3.80881e-07
4.50794e-07
0.00547734
0.00270279
0.00136477
0.00242734
1.38719e-06
4.9863e-08
3.95393e-09
6.246e-09
4.91458e-09
1.79093e-07
0.00230294
0.00138239
0.000780354
0.00101741
1.53329e-06
1.51536e-08
5.10218e-10
6.85892e-11
6.07943e-10
2.03073e-07
0.00138202
0.000790435
0.00049057
0.000684578
2.09903e-06
3.57411e-09
5.92984e-09
1.62138e-10
1.31318e-08
1.78536e-07
0.000718295
0.000498606
0.000331923
0.000396736
3.94313e-06
3.8725e-08
3.08809e-09
1.8676e-09
1.84158e-08
2.296e-07
0.000398591
0.000339167
0.000237829
0.000223168
3.0796e-06
4.34049e-08
1.56534e-09
1.5312e-08
1.22253e-08
3.98689e-08
0.000135031
0.000243221
0.000177205
0.000105302
1.97359e-06
4.49552e-08
2.89723e-10
1.73553e-08
6.85072e-09
4.00702e-08
4.95162e-05
0.000182084
0.000137244
5.53952e-05
1.23821e-06
3.28618e-08
3.24454e-10
9.85347e-09
4.59597e-09
5.51805e-08
2.3938e-05
0.000141261
0.000109161
3.23162e-05
5.04231e-07
3.37818e-08
4.02904e-10
9.07246e-09
2.82432e-09
6.51957e-08
1.54903e-05
0.000112841
8.8813e-05
2.0971e-05
9.44075e-07
1.86185e-08
5.37548e-10
5.74061e-09
1.63455e-09
3.40926e-08
1.1225e-05
9.24592e-05
7.36958e-05
1.47756e-05
8.50141e-07
1.79352e-08
5.50534e-10
3.24532e-09
1.22608e-09
6.63075e-08
8.71809e-06
7.7211e-05
6.20879e-05
1.18724e-05
7.89515e-07
1.12244e-08
5.72337e-10
1.99078e-09
1.14784e-09
4.78187e-08
6.98852e-06
6.58315e-05
5.30619e-05
1.03415e-05
6.54779e-07
1.67896e-08
7.16791e-10
1.59846e-09
1.12978e-09
4.07647e-08
6.04447e-06
5.68386e-05
4.58131e-05
9.36273e-06
6.15132e-07
1.22765e-08
5.5003e-10
1.33854e-09
1.45557e-09
3.98266e-08
5.20163e-06
4.99809e-05
3.98753e-05
9.02752e-06
5.36747e-07
2.00938e-08
9.39479e-10
1.77085e-09
1.86353e-09
3.92595e-08
4.72025e-06
4.41789e-05
3.49089e-05
8.94323e-06
6.0676e-07
2.20282e-08
1.094e-09
1.7284e-09
2.32762e-09
4.25256e-08
4.28631e-06
3.98468e-05
3.06423e-05
8.94408e-06
7.53917e-07
3.12206e-08
2.02414e-09
1.91066e-09
2.90959e-09
4.14794e-08
3.93205e-06
3.57923e-05
2.69185e-05
9.27571e-06
1.01044e-06
6.15957e-08
4.16626e-09
2.55058e-09
3.45221e-09
4.43978e-08
3.62358e-06
3.30045e-05
2.35873e-05
9.86967e-06
1.25884e-06
9.87483e-08
8.38896e-09
3.52233e-09
4.32813e-09
3.36445e-08
3.32806e-06
2.99615e-05
2.05356e-05
1.05755e-05
1.71021e-06
1.68568e-07
1.54012e-08
4.58838e-09
5.19463e-09
3.42375e-08
3.07589e-06
2.81352e-05
1.77057e-05
1.1598e-05
2.10843e-06
2.79175e-07
3.13441e-08
7.56477e-09
6.77677e-09
3.27835e-08
2.64934e-06
2.5546e-05
1.5017e-05
1.24952e-05
2.9093e-06
4.2085e-07
5.64702e-08
1.11067e-08
8.22261e-09
3.78646e-08
2.29951e-06
2.40657e-05
1.24323e-05
1.28075e-05
4.3121e-06
7.35692e-07
1.13871e-07
2.46529e-08
1.43768e-08
4.27637e-08
1.79806e-06
2.14699e-05
9.95275e-06
1.32159e-05
5.92083e-06
1.17325e-06
2.15942e-07
4.21293e-08
1.79934e-08
3.88845e-08
1.48949e-06
1.9565e-05
7.63419e-06
1.38635e-05
7.64681e-06
1.96431e-06
4.23586e-07
1.02285e-07
4.29641e-08
4.34983e-08
1.03681e-06
1.60966e-05
5.59096e-06
1.44334e-05
9.57401e-06
2.98826e-06
7.92237e-07
2.13656e-07
7.60321e-08
6.05408e-08
1.08881e-06
1.28622e-05
0.30991
0.752053
0.770141
0.769704
0.769583
0.76955
0.769666
0.77012
0.752448
0.310204
0.0623466
0.0717957
0.0564637
0.0558871
0.0570524
0.0559855
0.0572553
0.0563841
0.0718788
0.0626924
0.0170814
0.0280325
0.0185317
0.017587
0.0160281
0.0172121
0.0155727
0.0189323
0.028019
0.0172142
0.00608028
0.012199
0.000271297
5.89686e-05
0.000164282
9.5902e-05
0.0017546
0.000166087
0.0121645
0.00614357
0.0026422
0.00542036
2.74672e-06
9.42682e-07
7.62673e-06
2.54387e-06
4.63718e-06
4.73223e-07
0.00541585
0.0026732
0.00134931
0.00226989
2.9797e-05
4.37459e-08
1.45586e-08
2.56656e-07
1.25409e-09
1.86475e-07
0.00227387
0.00136567
0.00077166
0.00136138
1.08656e-05
5.10144e-08
1.27378e-12
3.04903e-08
3.81891e-11
1.98198e-07
0.00135841
0.000780161
0.000482972
0.000708041
7.79601e-06
2.24879e-09
7.5556e-13
1.11483e-09
5.24249e-11
1.64669e-07
0.000703507
0.000491921
0.000328169
0.000388865
1.68564e-06
3.11119e-09
5.73836e-13
4.38274e-12
6.622e-12
5.01754e-08
0.000390952
0.000334607
0.000234823
0.000154834
8.19661e-07
2.00896e-09
3.10904e-13
1.06615e-11
3.84087e-12
2.71997e-08
0.000130102
0.000239921
0.000175707
6.43346e-05
3.54242e-07
1.34168e-09
2.53255e-13
2.14113e-11
7.44501e-12
2.30673e-08
4.63585e-05
0.000179649
0.000135641
3.08353e-05
2.21581e-07
1.33735e-09
5.55781e-12
3.54878e-11
2.17277e-11
2.81799e-08
2.22369e-05
0.000139427
0.00010774
1.8798e-05
1.20086e-07
1.22966e-09
3.14251e-12
3.95382e-11
8.06093e-12
2.487e-08
1.46607e-05
0.000111304
8.75241e-05
1.37556e-05
2.11986e-07
1.7444e-09
8.99687e-12
3.66287e-11
9.46706e-11
5.71403e-08
1.09397e-05
9.11493e-05
7.26127e-05
1.1023e-05
2.07922e-07
2.54122e-09
2.29618e-11
2.34433e-11
5.54205e-11
5.7269e-08
8.5274e-06
7.61226e-05
6.12408e-05
9.78385e-06
2.51708e-07
4.17422e-09
3.12656e-11
1.25417e-11
8.37438e-11
5.76476e-08
6.99486e-06
6.4893e-05
5.2398e-05
8.91503e-06
3.22013e-07
6.8531e-09
6.86063e-11
1.12025e-11
8.31932e-11
5.17258e-08
6.11889e-06
5.60108e-05
4.53081e-05
8.54436e-06
4.15492e-07
9.58373e-09
1.32136e-10
9.87446e-12
1.21771e-10
5.12837e-08
5.04011e-06
4.92564e-05
3.94935e-05
8.00869e-06
4.94394e-07
1.69095e-08
4.82336e-10
1.84923e-11
1.26591e-10
4.89754e-08
4.57736e-06
4.35188e-05
3.46083e-05
8.23944e-06
6.06223e-07
2.49581e-08
6.84021e-10
4.56544e-11
2.18459e-10
4.78152e-08
3.92297e-06
3.92493e-05
3.04281e-05
8.58025e-06
7.54666e-07
4.00155e-08
1.84082e-09
1.59777e-11
1.46048e-10
4.66964e-08
3.70805e-06
3.52628e-05
2.67528e-05
8.93061e-06
9.60802e-07
6.15125e-08
2.79442e-09
2.09603e-10
1.86419e-10
4.22767e-08
3.56156e-06
3.25032e-05
2.34788e-05
9.54299e-06
1.19252e-06
9.67383e-08
6.22146e-09
1.10541e-10
2.88865e-10
3.94616e-08
3.16212e-06
2.95224e-05
2.04492e-05
1.01719e-05
1.57593e-06
1.5115e-07
1.06054e-08
1.14312e-09
4.68297e-10
5.55844e-08
2.9183e-06
2.76985e-05
1.76411e-05
1.11496e-05
1.9617e-06
2.47609e-07
2.22287e-08
1.43074e-09
5.84585e-10
3.119e-08
2.53654e-06
2.52127e-05
1.49517e-05
1.21211e-05
2.66446e-06
3.67452e-07
4.28452e-08
6.61995e-09
1.06824e-09
4.17736e-08
2.2407e-06
2.38187e-05
1.23781e-05
1.25769e-05
4.09752e-06
6.59203e-07
8.61064e-08
9.4249e-09
2.19327e-09
4.1011e-08
1.75715e-06
2.12244e-05
9.86257e-06
1.30336e-05
5.69423e-06
1.0873e-06
1.77752e-07
3.59201e-08
5.95673e-09
3.08355e-08
1.49098e-06
1.97349e-05
7.5252e-06
1.38509e-05
7.60439e-06
1.86865e-06
3.61434e-07
6.22761e-08
8.12885e-09
2.69225e-08
1.01943e-06
1.57627e-05
5.33026e-06
1.44415e-05
9.57933e-06
2.98508e-06
7.61932e-07
1.94372e-07
5.32001e-08
3.75504e-08
1.12146e-06
1.37989e-05
0.30991
0.752048
0.770151
0.769725
0.769545
0.769516
0.769692
0.770125
0.752446
0.310203
0.0623467
0.0718026
0.0565145
0.0555155
0.0558315
0.0559388
0.0558348
0.0580196
0.0718732
0.0626918
0.017081
0.0280192
0.0185485
0.0174349
0.0172583
0.0172316
0.0175338
0.0144689
0.0279807
0.0172131
0.0060801
0.0121747
0.00042809
0.000120136
0.000491057
0.000374055
4.61155e-05
0.00777184
0.0121386
0.00614209
0.00264196
0.00539999
8.60531e-07
3.93138e-06
3.1176e-07
1.30842e-07
8.24914e-07
0.00202252
0.00538378
0.00267235
0.00134957
0.00226086
3.10698e-07
4.141e-10
2.40843e-07
8.14423e-11
2.49792e-09
0.00048597
0.00225762
0.00136536
0.000771076
0.00134794
1.82004e-06
2.56997e-11
6.99566e-12
2.22291e-12
2.33835e-07
0.000273474
0.00133893
0.00078003
0.000484422
0.000697965
2.77649e-06
7.08584e-11
8.81606e-14
3.00546e-12
8.51678e-08
7.35943e-05
0.000698557
0.000491882
0.000328884
0.000379061
5.38491e-06
9.37929e-10
9.25419e-14
2.3994e-12
4.6846e-08
3.26762e-05
0.000380263
0.000334587
0.000235141
0.000154557
3.86534e-06
1.57994e-09
1.16769e-13
1.14144e-12
2.41797e-08
1.20305e-05
0.000149139
0.000239857
0.000175721
5.82537e-05
3.04441e-06
3.15683e-08
8.56019e-13
9.2832e-13
1.3486e-09
4.82746e-06
5.11359e-05
0.00017968
0.000135593
2.8462e-05
1.81399e-06
1.82071e-08
7.16438e-11
7.1336e-13
1.8821e-09
2.61991e-06
2.24972e-05
0.000139366
0.000107712
1.81212e-05
1.46408e-06
1.71075e-08
6.74095e-11
5.26754e-13
6.37006e-10
1.13926e-06
1.43379e-05
0.000111279
8.75441e-05
1.36161e-05
9.28271e-07
1.38079e-08
1.4657e-10
2.66418e-13
4.36158e-10
5.83488e-07
1.05417e-05
9.11425e-05
7.26462e-05
1.10826e-05
7.31852e-07
7.48484e-09
1.55972e-10
2.59123e-13
5.00491e-10
2.65e-07
8.20355e-06
7.61301e-05
6.12813e-05
9.8118e-06
5.41391e-07
1.47619e-08
2.58285e-10
1.5366e-13
3.46983e-10
2.58562e-07
6.82858e-06
6.48849e-05
5.2439e-05
9.15171e-06
4.49394e-07
1.19878e-08
2.49812e-10
1.01041e-11
3.14447e-10
2.19906e-07
5.91743e-06
5.60124e-05
4.5336e-05
8.60517e-06
4.49649e-07
1.36703e-08
3.85296e-10
6.09293e-12
3.34039e-10
1.93217e-07
5.28099e-06
4.92625e-05
3.95124e-05
8.42022e-06
5.19271e-07
1.74617e-08
3.24968e-10
2.47658e-11
3.29033e-10
1.3382e-07
4.50478e-06
4.35472e-05
3.46182e-05
8.33659e-06
5.90977e-07
2.38477e-08
1.10088e-09
4.49834e-11
3.51205e-10
1.12835e-07
4.308e-06
3.92774e-05
3.04375e-05
8.50778e-06
7.58776e-07
3.94599e-08
1.26635e-09
2.25761e-11
3.83959e-10
1.00738e-07
3.98508e-06
3.531e-05
2.67573e-05
8.82353e-06
9.60021e-07
6.11147e-08
3.9394e-09
2.28367e-10
4.25406e-10
9.13e-08
3.69463e-06
3.2545e-05
2.34842e-05
9.5121e-06
1.23629e-06
1.02673e-07
5.52937e-09
4.62165e-10
4.6075e-10
8.2001e-08
3.34499e-06
2.95722e-05
2.04572e-05
1.01815e-05
1.61179e-06
1.56258e-07
1.55808e-08
6.29623e-10
4.65052e-10
7.71113e-08
3.04433e-06
2.77175e-05
1.76471e-05
1.11538e-05
2.05374e-06
2.67617e-07
2.36631e-08
3.3853e-09
8.68862e-10
6.81227e-08
2.58771e-06
2.51781e-05
1.49507e-05
1.21183e-05
2.7563e-06
3.98756e-07
5.81587e-08
4.80171e-09
6.5473e-10
5.43375e-08
2.23593e-06
2.37631e-05
1.23711e-05
1.25643e-05
4.20144e-06
7.02405e-07
9.56912e-08
1.80302e-08
3.54273e-09
4.27808e-08
1.73193e-06
2.10354e-05
9.85232e-06
1.30316e-05
5.76004e-06
1.13554e-06
2.17304e-07
3.05033e-08
4.93584e-10
2.85867e-08
1.44388e-06
1.97493e-05
7.51535e-06
1.38607e-05
7.65929e-06
1.88173e-06
3.77154e-07
8.66255e-08
2.54179e-08
2.65578e-08
9.98057e-07
1.53476e-05
5.32799e-06
1.45141e-05
9.67852e-06
3.06516e-06
7.75895e-07
1.87799e-07
4.53027e-08
2.93524e-08
1.025e-06
1.4364e-05
0.309986
0.75219
0.770301
0.769842
0.769688
0.769722
0.769851
0.770281
0.752592
0.310276
0.0624833
0.0719101
0.0566425
0.0559582
0.0560531
0.0570344
0.0560261
0.0563152
0.0723342
0.0628286
0.0171661
0.0280488
0.0184114
0.0177567
0.0173707
0.0161548
0.017601
0.0187124
0.0281301
0.0172967
0.00612531
0.0121619
0.000717946
0.000202733
0.000502182
0.000163658
5.859e-05
8.76756e-05
0.0122003
0.00618828
0.00266694
0.00538483
2.22975e-06
1.01851e-07
2.83938e-07
1.72061e-06
9.60078e-07
4.75787e-05
0.00535314
0.00269825
0.00136485
0.00225923
2.94001e-07
1.91995e-10
2.42365e-07
7.10982e-08
2.29618e-07
2.15384e-05
0.00237891
0.00138108
0.000780226
0.00132793
1.30706e-06
8.67566e-11
1.81716e-08
7.44452e-09
9.78539e-08
5.6097e-06
0.00107965
0.000789847
0.000492485
0.000676407
2.37254e-06
1.58809e-10
2.33575e-09
5.72951e-08
3.06427e-08
3.27734e-06
0.000514632
0.000497862
0.000333375
0.000370266
1.92049e-06
4.59011e-10
3.67929e-10
1.01331e-08
5.84812e-09
1.99862e-06
0.000261083
0.000338003
0.000238473
0.000162871
3.61811e-06
7.65981e-10
1.89294e-10
5.59995e-09
2.18414e-09
6.17621e-07
0.000109704
0.000242532
0.000177971
7.24754e-05
2.05426e-06
5.9074e-09
1.08843e-10
7.90366e-09
1.11082e-09
6.7444e-07
9.4265e-05
0.000182197
0.00013749
3.74724e-05
1.43173e-06
5.74266e-09
8.18737e-11
3.04988e-09
2.04177e-09
2.52005e-07
6.54968e-05
0.000141177
0.000109182
2.33655e-05
8.96566e-07
1.05479e-08
1.45576e-10
2.56905e-09
8.8887e-10
1.56186e-07
3.97434e-05
0.000112899
8.87723e-05
1.66105e-05
5.70089e-07
1.14938e-08
6.8704e-10
1.40953e-09
1.14359e-09
9.66325e-08
2.10173e-05
9.26233e-05
7.3601e-05
1.25755e-05
4.33044e-07
7.98434e-09
8.2988e-10
1.63131e-09
7.28822e-10
6.9392e-08
1.26836e-05
7.7229e-05
6.20352e-05
1.08261e-05
4.93182e-07
9.43113e-09
1.0464e-09
1.46704e-09
1.18492e-09
6.68246e-08
8.48848e-06
6.56984e-05
5.3032e-05
9.92044e-06
4.58201e-07
1.01247e-08
1.05266e-09
1.41882e-09
1.19504e-09
5.921e-08
6.39246e-06
5.66697e-05
4.58006e-05
9.17832e-06
4.89065e-07
1.314e-08
1.34887e-09
1.71649e-09
1.0682e-09
5.76295e-08
5.20579e-06
4.98362e-05
3.98579e-05
8.89577e-06
5.69603e-07
1.8993e-08
1.59892e-09
1.87382e-09
1.30021e-09
5.28627e-08
4.47147e-06
4.40208e-05
3.48792e-05
8.82254e-06
6.90404e-07
3.23582e-08
2.26051e-09
2.22956e-09
1.86076e-09
5.27897e-08
3.96047e-06
3.96386e-05
3.06165e-05
8.8356e-06
8.26009e-07
4.5688e-08
3.86458e-09
2.61985e-09
2.51416e-09
5.06276e-08
3.36309e-06
3.55941e-05
2.6879e-05
9.1136e-06
1.04381e-06
7.43855e-08
5.48326e-09
3.20588e-09
3.33747e-09
4.82483e-08
3.10131e-06
3.27302e-05
2.35401e-05
9.70215e-06
1.25675e-06
1.08918e-07
1.15316e-08
3.86787e-09
4.44255e-09
4.48607e-08
2.42665e-06
2.96678e-05
2.04719e-05
1.03418e-05
1.65994e-06
1.70008e-07
1.63836e-08
5.80586e-09
5.43602e-09
4.68981e-08
2.40233e-06
2.77632e-05
1.76157e-05
1.1251e-05
2.0382e-06
2.68149e-07
3.64868e-08
7.5864e-09
7.25996e-09
3.69944e-08
2.20027e-06
2.52017e-05
1.49174e-05
1.22313e-05
2.7631e-06
4.10403e-07
5.41112e-08
1.54137e-08
9.39505e-09
3.98052e-08
1.99389e-06
2.37684e-05
1.23249e-05
1.25465e-05
4.12861e-06
6.9239e-07
1.1517e-07
2.11592e-08
1.41534e-08
3.73525e-08
1.58994e-06
2.11233e-05
9.85815e-06
1.30452e-05
5.79723e-06
1.12538e-06
2.02252e-07
5.24122e-08
1.88032e-08
3.6676e-08
1.36032e-06
1.95675e-05
7.54375e-06
1.37263e-05
7.52054e-06
1.92873e-06
4.08207e-07
8.70116e-08
3.84989e-08
4.15111e-08
9.58357e-07
1.57049e-05
5.53005e-06
1.44646e-05
9.60227e-06
2.97647e-06
7.86277e-07
2.21125e-07
6.82604e-08
5.40631e-08
1.06733e-06
1.3613e-05
0.310278
0.75238
0.77071
0.770323
0.770198
0.770129
0.770307
0.770784
0.75276
0.310563
0.0629405
0.0724068
0.0586915
0.0565279
0.0564072
0.0579904
0.0569402
0.0572175
0.072513
0.0632843
0.0173982
0.0281909
0.01565
0.0193917
0.0192038
0.014182
0.0176728
0.0184079
0.0282107
0.0175318
0.0062283
0.012207
0.00730446
0.000217955
0.000283514
0.00889455
0.00101087
0.000961392
0.0122306
0.00630281
0.00271718
0.00533045
0.00155349
7.47484e-07
7.20344e-07
0.00349078
9.96011e-06
1.72553e-05
0.00533242
0.00275064
0.0013902
0.00221205
0.000986085
2.19595e-07
1.93274e-07
0.000309098
5.3177e-07
2.51475e-06
0.00220268
0.00140696
0.00079505
0.00126384
0.000183551
2.70354e-07
1.49409e-05
0.000114814
1.17325e-06
4.71485e-06
0.00129951
0.000804584
0.00050026
0.000637151
5.77903e-05
9.38401e-07
1.78985e-06
5.26143e-05
7.71592e-07
4.73978e-06
0.000661731
0.00050693
0.000339111
0.00034987
1.24047e-05
2.72861e-07
1.42398e-06
1.45657e-05
1.53167e-06
2.03157e-06
0.00032838
0.000344128
0.000242585
0.000150507
6.66969e-06
3.20396e-07
3.95472e-07
6.29163e-06
6.77516e-07
1.71451e-06
0.000118566
0.000246002
0.000180727
7.42421e-05
3.23044e-06
2.2161e-07
2.91407e-07
3.72395e-06
2.84353e-07
7.72627e-07
4.20647e-05
0.000183684
0.000139644
3.85886e-05
2.1478e-06
3.61532e-07
2.00511e-07
1.87546e-06
4.60208e-07
5.97981e-07
1.84274e-05
0.0001419
0.000110827
2.65216e-05
1.63981e-06
3.00467e-07
1.88196e-07
1.10801e-06
2.86299e-07
3.93572e-07
9.09562e-06
0.000112949
9.00561e-05
1.87797e-05
1.18376e-06
3.03278e-07
1.71377e-07
5.22672e-07
3.09352e-07
3.2166e-07
7.71598e-06
9.20972e-05
7.46365e-05
1.35499e-05
7.92187e-07
2.60463e-07
1.88595e-07
4.51256e-07
2.91562e-07
2.15952e-07
7.25492e-06
7.67279e-05
6.29852e-05
1.0964e-05
7.50683e-07
2.45501e-07
1.87088e-07
3.78711e-07
2.6244e-07
2.50791e-07
7.02612e-06
6.53026e-05
5.38218e-05
9.72336e-06
6.30013e-07
2.32235e-07
1.89647e-07
2.71308e-07
2.43437e-07
2.47719e-07
6.73915e-06
5.63653e-05
4.64978e-05
9.01521e-06
5.88394e-07
2.26169e-07
1.89344e-07
2.6608e-07
2.25288e-07
2.444e-07
6.1629e-06
4.95202e-05
4.04892e-05
8.78142e-06
6.48322e-07
1.99073e-07
1.83367e-07
2.29104e-07
2.14219e-07
2.11945e-07
5.59762e-06
4.38092e-05
3.54133e-05
8.67472e-06
7.33099e-07
1.97385e-07
1.87959e-07
2.14255e-07
1.8047e-07
2.24927e-07
5.09616e-06
3.94466e-05
3.10661e-05
8.78595e-06
8.8902e-07
2.39694e-07
2.04285e-07
2.1468e-07
1.97454e-07
2.09993e-07
4.68763e-06
3.55125e-05
2.72235e-05
9.11427e-06
1.07725e-06
2.91097e-07
2.21572e-07
2.26232e-07
1.88066e-07
2.29504e-07
4.3024e-06
3.26433e-05
2.38008e-05
9.78503e-06
1.3378e-06
3.63416e-07
2.50054e-07
2.45965e-07
2.15521e-07
2.59125e-07
3.85698e-06
2.96905e-05
2.06049e-05
1.04012e-05
1.73471e-06
4.5397e-07
2.84917e-07
2.67642e-07
2.57275e-07
2.97611e-07
3.40448e-06
2.76688e-05
1.76268e-05
1.14618e-05
2.1708e-06
5.87343e-07
3.29981e-07
2.98026e-07
3.06583e-07
3.37662e-07
2.96306e-06
2.52045e-05
1.47326e-05
1.24329e-05
2.99122e-06
7.63743e-07
4.09695e-07
3.43197e-07
3.57864e-07
3.78737e-07
2.49791e-06
2.35894e-05
1.19392e-05
1.30211e-05
4.46705e-06
1.1923e-06
5.15711e-07
4.20279e-07
4.26382e-07
4.42838e-07
2.16215e-06
2.11004e-05
9.1759e-06
1.38939e-05
6.50798e-06
1.67994e-06
7.87307e-07
5.13141e-07
5.27578e-07
5.24222e-07
1.75278e-06
1.95886e-05
6.73344e-06
1.53876e-05
8.92274e-06
3.02013e-06
1.09737e-06
7.19673e-07
6.46951e-07
7.15462e-07
1.89623e-06
1.61098e-05
5.25351e-06
1.73937e-05
1.31228e-05
4.97774e-06
2.15747e-06
1.10049e-06
9.05214e-07
9.10559e-07
2.39097e-06
1.41229e-05
0.311352
0.731062
0.752771
0.752575
0.752442
0.75244
0.752575
0.752755
0.731326
0.311623
0.0639265
0.0821004
0.0728013
0.072049
0.0720586
0.0718562
0.0720209
0.0725567
0.0822536
0.0642457
0.0177632
0.0292895
0.0284007
0.0281336
0.0280784
0.0280003
0.0280678
0.0282229
0.0289703
0.0179265
0.00636176
0.0128244
0.0124797
0.0122627
0.0122054
0.0122286
0.0121903
0.0122342
0.0128222
0.00646419
0.00277778
0.0057553
0.00551426
0.00546968
0.00542838
0.00534694
0.00540139
0.00533597
0.00589906
0.00282469
0.00140614
0.00261221
0.00246957
0.00229688
0.0022816
0.00240269
0.00226253
0.00219792
0.00255018
0.00143516
0.000800882
0.00121108
0.0011174
0.00138416
0.00136592
0.00102389
0.00134558
0.00131029
0.00164076
0.000812573
0.000498906
0.000582687
0.000538076
0.000731293
0.000719266
0.000650849
0.000692852
0.000655474
0.000984995
0.000507471
0.0003339
0.00029712
0.000217108
0.000400271
0.000392081
0.000364349
0.000376549
0.000358075
0.000555611
0.000340137
0.000236228
0.000152901
0.000198432
0.000176469
0.000155491
0.000204624
0.000164986
0.000154177
0.000260199
0.000241532
0.000174299
0.000105224
0.000132674
7.22648e-05
5.5939e-05
9.66416e-05
7.22949e-05
6.35907e-05
0.000138128
0.000179086
0.00013356
7.3065e-05
7.48944e-05
3.56607e-05
2.65047e-05
4.89421e-05
3.76473e-05
3.24369e-05
7.27806e-05
0.000137456
0.000105233
4.83072e-05
4.59143e-05