/*--------------------------------*- C++ -*----------------------------------*\
| =========                 |                                                 |
| \\      /  F ield         | OpenFOAM: The Open Source CFD Toolbox           |
|  \\    /   O peration     | Version:  4.1                                   |
|   \\  /    A nd           | Web:      www.OpenFOAM.org                      |
|    \\/     M anipulation  |                                                 |
\*---------------------------------------------------------------------------*/
FoamFile
{
    version     2.0;
    format      ascii;
    class       volScalarField;
    location    "400";
    object      k;
}
// * * * * * * * * * * * * * * * * * * * * * * * * * * * * * * * * * * * * * //

dimensions      [0 2 -2 0 0 0 0];

internalField   nonuniform List<scalar> 
12000
(
0.116728
0.114723
0.114436
0.114361
0.114342
0.114342
0.114361
0.114433
0.114697
0.116701
0.0404629
0.0399117
0.0395031
0.0393155
0.0392588
0.0392591
0.0393169
0.0395081
0.03992
0.0404795
0.0169261
0.0169975
0.016767
0.0166174
0.0165624
0.0165623
0.0166168
0.016767
0.0169977
0.0169383
0.00838472
0.00857673
0.00845899
0.00836207
0.00831999
0.00832033
0.00836197
0.00845599
0.0085839
0.00839252
0.00476316
0.00493468
0.00486896
0.00480537
0.00477416
0.00477483
0.00480619
0.00486512
0.00493639
0.00476777
0.00301137
0.00314364
0.00311504
0.00307517
0.00305266
0.00305282
0.00307638
0.00311424
0.00314418
0.003015
0.00206201
0.0021559
0.00214964
0.00211934
0.00210086
0.00210271
0.0021212
0.00214712
0.00215449
0.00206663
0.00150101
0.00157396
0.00157382
0.00155847
0.00154734
0.00154583
0.00156003
0.00157843
0.00157359
0.00150691
0.00114487
0.00120523
0.00121117
0.00120451
0.00119232
0.00119505
0.00120653
0.00121967
0.0012053
0.00115203
0.000905902
0.00095865
0.000968332
0.00096467
0.000955943
0.000957082
0.000966356
0.000976879
0.000959646
0.000914249
0.000738059
0.000784353
0.000799436
0.000794903
0.000787861
0.000788885
0.000797058
0.000805376
0.000786525
0.000747639
0.000615756
0.000657256
0.000674411
0.00066983
0.000664826
0.000665678
0.000672276
0.000678894
0.000661051
0.000626622
0.000523871
0.000561634
0.000578966
0.000575982
0.000571481
0.000572499
0.000578122
0.000583729
0.000565047
0.00053601
0.000452621
0.000486638
0.000504287
0.000503059
0.000498859
0.000500581
0.000505383
0.000509714
0.000491394
0.000466367
0.000396177
0.000428417
0.000446317
0.000445726
0.000442234
0.000443915
0.000448261
0.000452214
0.000435497
0.000412126
0.000350696
0.000382708
0.000400214
0.000399734
0.000397263
0.000398869
0.000402616
0.000406523
0.000391393
0.000369166
0.000313159
0.000345125
0.00036238
0.000362166
0.000360397
0.000361739
0.000365303
0.000369382
0.000355952
0.000334762
0.000281458
0.000313929
0.000330777
0.000330899
0.000329843
0.000331507
0.000334862
0.000339007
0.000326852
0.000306633
0.000254003
0.000287227
0.000304042
0.000304647
0.000304308
0.00030594
0.000309182
0.000313805
0.000302879
0.000283761
0.000229524
0.00026386
0.000280829
0.000282119
0.00028256
0.00028478
0.000288019
0.000292555
0.000282706
0.000264629
0.000206975
0.00024262
0.000260577
0.000262803
0.000263837
0.000266081
0.000269486
0.000274751
0.000266243
0.000249268
0.000185359
0.000222889
0.000242136
0.000245702
0.000247568
0.000250832
0.000254426
0.000259664
0.000252257
0.000236235
0.000163725
0.000203354
0.000225435
0.000230563
0.000233041
0.000236512
0.000240716
0.00024702
0.000241346
0.000226412
0.000140765
0.000183456
0.000208912
0.000216493
0.000220351
0.000225187
0.000229697
0.000236119
0.000231905
0.000218158
0.00011507
0.000160866
0.000192738
0.00020315
0.000207849
0.000213105
0.000219079
0.000227402
0.000225364
0.000213036
8.3145e-05
0.000135018
0.000173749
0.000189708
0.000197144
0.000204103
0.000210253
0.000219431
0.00021934
0.000209376
4.5444e-05
0.000101692
0.000152039
0.00017346
0.000183669
0.000192268
0.000201305
0.000213657
0.000216161
0.000208738
3.08655e-05
6.77844e-05
0.000120413
0.000154792
0.000171284
0.000182557
0.000191315
0.000206477
0.000213744
0.000212186
4.26552e-05
6.14035e-05
8.12149e-05
0.000110847
0.000143914
0.000167009
0.00018133
0.000199264
0.000213235
0.000213711
6.90669e-05
8.86989e-05
9.56539e-05
9.7308e-05
0.000104121
0.000126498
0.000152485
0.000185265
0.000208461
0.000228163
0.114723
0.030074
0.0281766
0.0281585
0.0281573
0.0281572
0.0281587
0.0281767
0.0300812
0.114753
0.0399104
0.00473924
0.00282473
0.00278396
0.00277992
0.00278161
0.00278852
0.00280808
0.00473486
0.0400296
0.0169957
0.00226326
0.00125119
0.00126745
0.00127461
0.00126731
0.001247
0.00130358
0.00222208
0.0170863
0.00857457
0.00154757
0.000836525
0.000848385
0.000848414
0.000850034
0.000840896
0.00083959
0.00172181
0.00865208
0.00493221
0.00125503
0.000536981
0.00053359
0.000532328
0.000533001
0.000530929
0.000532994
0.0013164
0.00498259
0.00314116
0.00092015
0.000345854
0.000343439
0.000343814
0.000344365
0.000341808
0.000332277
0.000923866
0.00317463
0.00215296
0.00073859
0.000299355
0.000296515
0.000296697
0.000298486
0.000295333
0.000288329
0.000756657
0.00217513
0.00157113
0.000564404
0.000225442
0.000211975
0.000197595
0.000212844
0.000209977
0.000198875
0.000560713
0.00158994
0.00120221
0.000405857
0.000165236
0.000120547
0.000147525
0.000129198
0.000122748
0.000128226
0.000410015
0.00121743
0.000955383
0.000309618
0.000133051
8.22549e-05
0.000109961
7.40324e-05
7.92643e-05
8.36037e-05
0.000331263
0.000968227
0.000780762
0.000211047
9.28343e-05
5.47977e-05
8.03926e-05
6.25327e-05
6.11891e-05
6.55564e-05
0.000291055
0.000792694
0.000653276
0.000202275
7.82288e-05
5.46206e-05
5.06777e-05
6.04167e-05
4.87678e-05
4.91629e-05
0.000242148
0.000665825
0.000557204
0.000185037
5.36832e-05
6.02164e-05
4.7954e-05
5.43744e-05
4.89948e-05
4.98038e-05
0.000212911
0.000568888
0.000481811
0.000167209
5.43751e-05
6.20725e-05
5.29312e-05
5.78496e-05
4.96877e-05
4.64506e-05
0.000197891
0.000494748
0.000423034
0.000157974
6.29878e-05
6.0716e-05
5.67327e-05
6.01098e-05
5.5382e-05
4.79998e-05
0.000186982
0.000438543
0.000376604
0.000154482
6.34326e-05
6.01937e-05
5.72183e-05
5.57128e-05
5.39299e-05
5.1469e-05
0.000170919
0.0003946
0.000338221
0.000152702
6.62262e-05
6.02006e-05
5.77245e-05
5.48771e-05
5.45106e-05
5.17846e-05
0.000157979
0.000358856
0.000306064
0.000151316
6.0706e-05
6.12002e-05
5.97066e-05
5.4186e-05
5.65345e-05
5.28571e-05
0.000146711
0.000329805
0.000278388
0.000150552
6.12137e-05
5.80922e-05
5.61528e-05
5.51993e-05
5.49446e-05
5.99653e-05
0.000136023
0.000304937
0.000253875
0.000150723
6.27117e-05
5.82911e-05
5.7074e-05
5.92473e-05
5.82518e-05
5.7618e-05
0.00012711
0.00028449
0.000231683
0.000151669
6.53293e-05
5.85852e-05
5.74438e-05
5.68969e-05
5.72574e-05
6.10735e-05
0.000118409
0.000266179
0.000210934
0.000153935
6.93414e-05
6.01707e-05
5.8792e-05
5.78342e-05
5.81839e-05
6.40115e-05
0.000111261
0.000251469
0.000191136
0.000158859
7.42768e-05
6.26754e-05
6.02589e-05
6.0267e-05
6.03408e-05
6.29987e-05
0.000103874
0.000237304
0.000171235
0.00016235
8.3858e-05
6.65631e-05
6.42666e-05
6.38983e-05
6.34804e-05
6.45386e-05
9.81962e-05
0.000226514
0.000150618
0.0001664
9.46826e-05
7.12121e-05
6.93431e-05
6.81399e-05
6.75195e-05
6.66136e-05
9.25817e-05
0.000214734
0.000127584
0.000171966
0.000112532
7.79946e-05
7.36546e-05
7.20868e-05
7.10969e-05
6.92888e-05
8.98453e-05
0.000206331
0.000102076
0.000185095
0.000130179
8.77173e-05
7.96824e-05
7.72344e-05
7.63065e-05
7.42246e-05
8.80282e-05
0.000196497
7.28755e-05
0.000199292
0.000162857
0.000104439
8.84837e-05
8.3972e-05
8.2995e-05
7.99636e-05
9.84841e-05
0.000187697
5.83289e-05
0.0002308
0.000206499
0.000134055
0.000103406
9.58562e-05
9.54763e-05
9.58671e-05
0.000103465
0.000182363
6.1928e-05
0.00025833
0.000270105
0.000211092
0.000138022
0.000113763
0.000112205
0.000114045
0.000151142
0.000177216
0.114435
0.028177
0.0261052
0.0260886
0.0260864
0.0260857
0.0260887
0.0261048
0.0281818
0.114503
0.0395016
0.00281571
0.00124926
0.00123272
0.00123041
0.00123126
0.00125001
0.00124895
0.00281502
0.0396489
0.0167667
0.001293
0.000107629
0.000102337
0.000101388
0.00010166
9.72054e-05
0.000107521
0.00127437
0.016855
0.00845614
0.00083326
2.82209e-06
1.86065e-06
1.13274e-06
6.59908e-07
1.26659e-06
1.67717e-06
0.000844324
0.0085298
0.00486457
0.000523889
4.88884e-07
1.68687e-07
2.21537e-08
1.18568e-08
1.79149e-08
2.1054e-07
0.000537308
0.00491162
0.00311223
0.000342298
3.16876e-07
7.23172e-08
1.97335e-07
1.70906e-08
4.68553e-08
1.77046e-07
0.000353984
0.0031405
0.00214363
0.000277559
9.81486e-07
1.77414e-07
4.29066e-07
1.05175e-07
8.67373e-07
4.36749e-07
0.000284158
0.00216492
0.00157534
0.000218407
3.54802e-07
1.45144e-07
1.59741e-06
3.50579e-07
9.97306e-07
8.95349e-07
0.000238298
0.00158724
0.00121281
0.000144198
1.67502e-07
1.55796e-07
7.16345e-07
3.15235e-07
7.42018e-07
2.15655e-07
0.000156537
0.00122281
0.000969305
0.000103411
1.20334e-07
2.81761e-07
5.30134e-07
3.5449e-07
4.02453e-07
9.85803e-08
0.000118114
0.000979098
0.00079814
9.70441e-05
7.41445e-08
1.62756e-07
5.45183e-07
3.4184e-07
3.58397e-07
6.57814e-08
8.56601e-05
0.000807036
0.000671338
8.43928e-05
1.98237e-07
1.77438e-07
4.61243e-07
4.0226e-07
3.25467e-07
1.407e-07
7.61214e-05
0.000679601
0.000575382
8.17203e-05
5.60568e-07
1.98204e-07
4.42093e-07
5.0396e-07
5.23355e-07
2.01834e-07
6.80405e-05
0.000583488
0.000501562
8.00793e-05
7.29926e-07
2.19675e-07
3.886e-07
5.69776e-07
5.70397e-07
2.14515e-07
6.34834e-05
0.000509515
0.000442561
7.91509e-05
1.646e-06
4.21644e-07
5.19917e-07
6.69689e-07
6.72995e-07
5.94874e-07
6.42035e-05
0.000450974
0.000395036
8.01334e-05
2.01987e-06
2.65837e-07
8.15331e-07
9.31217e-07
8.55795e-07
5.89465e-07
5.97515e-05
0.000404976
0.000355935
8.1904e-05
2.38549e-06
8.7934e-07
7.00952e-07
1.40529e-06
1.28242e-06
5.9205e-07
5.72323e-05
0.000367247
0.000322905
8.37555e-05
2.94738e-06
8.69171e-07
8.0549e-07
1.87726e-06
1.79084e-06
9.64582e-07
5.57961e-05
0.000336936
0.000294456
8.74448e-05
4.25167e-06
1.0571e-06
9.7263e-07
2.2732e-06
2.17905e-06
1.10465e-06
5.70471e-05
0.000310615
0.000269403
9.21823e-05
5.55649e-06
1.20534e-06
1.47083e-06
2.56132e-06
2.54666e-06
1.18863e-06
5.6449e-05
0.00028978
0.000246954
9.81258e-05
8.55278e-06
1.69952e-06
2.28564e-06
3.0988e-06
3.04969e-06
1.47818e-06
5.3667e-05
0.000270141
0.000226214
0.000104761
1.1075e-05
2.27701e-06
2.97332e-06
3.46615e-06
3.43461e-06
1.75494e-06
5.04579e-05
0.000255378
0.000206858
0.000113768
1.64752e-05
3.45179e-06
3.65443e-06
3.98466e-06
3.93818e-06
2.34453e-06
4.62854e-05
0.000239434
0.000187963
0.000121856
2.07242e-05
4.42575e-06
4.31316e-06
4.45389e-06
4.35446e-06
2.87892e-06
4.16067e-05
0.000228564
0.000169506
0.00013443
2.96689e-05
6.83197e-06
5.26923e-06
5.12931e-06
5.00418e-06
3.89426e-06
3.71829e-05
0.00021407
0.000150437
0.00014125
4.1042e-05
9.42156e-06
6.42513e-06
6.0979e-06
5.77012e-06
4.70163e-06
3.18322e-05
0.000205076
0.000130864
0.000149702
6.18514e-05
1.51207e-05
8.31143e-06
7.2085e-06
6.88782e-06
5.9412e-06
2.79436e-05
0.000189651
0.000109799
0.000159106
8.37715e-05
2.23559e-05
1.15302e-05
8.87694e-06
8.20082e-06
7.37595e-06
2.32361e-05
0.000179231
8.93506e-05
0.000175919
0.000118624
3.90367e-05
1.58687e-05
1.13703e-05
1.05484e-05
1.0045e-05
2.27599e-05
0.000156651
7.57557e-05
0.0001974
0.000160624
6.82006e-05
2.96493e-05
1.78675e-05
1.43063e-05
1.33523e-05
2.49669e-05
0.000143993
0.11436
0.0281591
0.0260885
0.0260718
0.0260688
0.0260688
0.0260717
0.0260889
0.0281637
0.114432
0.0393143
0.00278206
0.00123341
0.00121535
0.00121418
0.00121497
0.00121814
0.00122637
0.00278124
0.0394601
0.0166159
0.0012785
0.000101995
9.83308e-05
9.72915e-05
9.55257e-05
9.57783e-05
9.84727e-05
0.00126729
0.0167011
0.00835979
0.000850653
2.03504e-06
1.24398e-07
3.37201e-07
8.81841e-07
9.45305e-07
2.78172e-07
0.000845307
0.00842656
0.00480184
0.000526399
1.99276e-07
4.10435e-10
2.92647e-09
2.96217e-10
3.71881e-10
5.85856e-09
0.000531239
0.00484459
0.00307199
0.000347137
1.09967e-07
4.93157e-11
4.9012e-13
3.62108e-13
5.22427e-13
5.20882e-09
0.000344862
0.00309838
0.00211629
0.000286533
1.86589e-07
9.71421e-11
6.81744e-12
1.20722e-13
3.98134e-12
1.52352e-08
0.000297983
0.00213448
0.00155304
0.000243913
2.48189e-07
1.56387e-10
7.89736e-11
5.88726e-12
7.91069e-11
2.29424e-08
0.000211684
0.00156995
0.00119694
0.000181568
4.77285e-07
5.85955e-10
8.63394e-11
2.77561e-11
1.89739e-10
2.88646e-08
0.000127946
0.00121429
0.000958423
0.000144835
3.61263e-07
1.20117e-09
1.33091e-10
3.25323e-10
2.26468e-10
1.38533e-08
7.0145e-05
0.000972856
0.000787707
0.00012477
5.06976e-07
1.39432e-09
1.23601e-10
8.02042e-10
4.68519e-10
3.45841e-08
5.78958e-05
0.000802102
0.000664318
0.000103707
5.6971e-07
1.77623e-09
7.37246e-10
6.82801e-10
7.43793e-10
1.07618e-07
5.58933e-05
0.000677219
0.000570288
8.69611e-05
5.24586e-07
3.51274e-09
2.22848e-10
1.4685e-09
1.0795e-09
1.90537e-07
5.5473e-05
0.000583033
0.000497011
7.78837e-05
1.10001e-06
1.40853e-09
2.40137e-09
1.79472e-09
2.23103e-09
1.8143e-07
5.20705e-05
0.000510522
0.000438877
7.75156e-05
1.0553e-06
3.81925e-09
2.01632e-10
2.51299e-09
3.3115e-09
1.98153e-07
5.03417e-05
0.000452725
0.000391489
7.58644e-05
1.30089e-06
1.3351e-08
4.24269e-09
3.50002e-09
4.47018e-09
2.19018e-07
4.91476e-05
0.000407071
0.000352563
7.69636e-05
1.74508e-06
2.14186e-08
5.44045e-09
7.10406e-09
7.09544e-09
2.69026e-07
4.73238e-05
0.0003691
0.000319674
7.80869e-05
2.40315e-06
2.54883e-08
1.12779e-08
1.18197e-08
1.46264e-08
3.02295e-07
4.52785e-05
0.00033878
0.000291419
8.23112e-05
4.03751e-06
7.35657e-08
8.85918e-09
1.45973e-08
2.07411e-08
4.24357e-07
4.56123e-05
0.000312026
0.000266689
8.82224e-05
6.11783e-06
1.7071e-07
1.58453e-08
1.62743e-08
2.88492e-08
4.83725e-07
4.04621e-05
0.00029128
0.00024449
9.52242e-05
8.93204e-06
3.46158e-07
2.91891e-08
2.4292e-08
3.80797e-08
5.39721e-07
3.98521e-05
0.000271169
0.000224258
0.00010513
1.24066e-05
7.84771e-07
6.34031e-08
3.65984e-08
4.83874e-08
6.6577e-07
3.72762e-05
0.000256899
0.000205353
0.000113262
1.68439e-05
1.2913e-06
1.20868e-07
5.20626e-08
6.37123e-08
6.25229e-07
3.99636e-05
0.000240856
0.000187234
0.000124578
2.25226e-05
2.45011e-06
2.39223e-07
7.88403e-08
8.03291e-08
6.55539e-07
3.98893e-05
0.000230966
0.000169612
0.000135884
2.9644e-05
3.85186e-06
4.63429e-07
1.16547e-07
1.06465e-07
6.45905e-07
3.57013e-05
0.000216569
0.000151974
0.000142795
4.43985e-05
6.47101e-06
8.93074e-07
2.29908e-07
1.44411e-07
7.5373e-07
3.16499e-05
0.00020812
0.000133993
0.000147496
5.88704e-05
1.12015e-05
1.82245e-06
3.76609e-07
2.18488e-07
7.7138e-07
2.5221e-05
0.000192872
0.000115525
0.000153658
8.00187e-05
1.70428e-05
3.37569e-06
8.72912e-07
3.20287e-07
6.43626e-07
2.06247e-05
0.000181287
9.68033e-05
0.000161871
9.91286e-05
2.87938e-05
6.60229e-06
1.58057e-06
5.80212e-07
6.99408e-07
1.41862e-05
0.000159174
7.86512e-05
0.000170521
0.000126536
4.18112e-05
1.18665e-05
3.66925e-06
1.15165e-06
8.94461e-07
1.242e-05
0.000137065
0.114342
0.0281577
0.0260857
0.0260689
0.0260662
0.026066
0.0260686
0.0260854
0.0281624
0.114414
0.0392576
0.00278269
0.00122879
0.00121285
0.0012233
0.00121262
0.00122745
0.00122911
0.00277766
0.0394026
0.0165601
0.00127153
0.000103935
9.75719e-05
9.18362e-05
9.56496e-05
9.14096e-05
9.83985e-05
0.00129353
0.0166458
0.00831758
0.000853986
5.11483e-07
1.23551e-07
2.6584e-07
1.93365e-07
2.28021e-06
2.86776e-07
0.000743044
0.0083752
0.0047719
0.000537605
3.48737e-08
4.02721e-10
1.54639e-09
7.80489e-10
3.49124e-09
6.05623e-09
0.00052325
0.00480915
0.00304876
0.000347138
5.81436e-07
6.13542e-12
7.53157e-14
6.45433e-13
9.19169e-13
4.64348e-09
0.000342725
0.00307335
0.00210054
0.000301727
7.26829e-07
2.18578e-10
1e-15
1.28731e-14
5.01731e-13
1.4977e-08
0.000297609
0.00211594
0.00153696
0.000231291
2.04073e-06
2.14628e-10
1e-15
3.08074e-15
2.07269e-12
2.31673e-08
0.000211686
0.00155589
0.0011879
0.000147832
7.16378e-07
1.47864e-09
1e-15
1e-15
5.99719e-13
7.18394e-09
0.00012783
0.00120339
0.000950331
9.71431e-05
8.38402e-07
4.96358e-10
2.0578e-15
2.92464e-14
7.24843e-13
8.32723e-09
6.93878e-05
0.000964035
0.000783261
7.41927e-05
6.29057e-07
7.57406e-10
5.71687e-14
6.59947e-14
3.35605e-12
2.0435e-08
5.65983e-05
0.000794934
0.000659137
5.96429e-05
5.95202e-07
1.08794e-09
1.52315e-10
5.65173e-13
8.83462e-12
4.25864e-08
5.52363e-05
0.000671346
0.000565326
6.47289e-05
7.69062e-07
5.84082e-09
9.05898e-13
1.45646e-12
4.06562e-11
1.12796e-07
5.62333e-05
0.000577727
0.00049219
6.11552e-05
1.22203e-06
1.13566e-08
3.66333e-11
3.0116e-12
1.0307e-10
1.53534e-07
5.57018e-05
0.000505689
0.000434567
6.37134e-05
1.62048e-06
1.96432e-08
1.91806e-10
1.28014e-11
2.14356e-10
1.93491e-07
5.56849e-05
0.00044846
0.00038792
6.58519e-05
2.31927e-06
2.88556e-08
3.18591e-10
1.79432e-11
4.57061e-10
2.61037e-07
5.28018e-05
0.000403193
0.000349616
6.7927e-05
3.21506e-06
6.32428e-08
7.48152e-10
2.57355e-11
6.71219e-10
2.46185e-07
4.8292e-05
0.000365507
0.000317321
7.13835e-05
4.29284e-06
1.07336e-07
2.01385e-09
1.04921e-10
1.53583e-09
3.76175e-07
4.67461e-05
0.000335498
0.000289555
7.73081e-05
5.76974e-06
2.11749e-07
6.97187e-09
1.00753e-10
2.8253e-09
4.38665e-07
4.36792e-05
0.00030891
0.000265156
8.38988e-05
7.32674e-06
3.18496e-07
1.00971e-08
6.49595e-10
5.04042e-09
5.02703e-07
4.23444e-05
0.000288361
0.00024335
9.241e-05
9.75921e-06
5.54703e-07
2.98385e-08
3.82173e-10
6.66912e-09
5.84522e-07
3.9753e-05
0.000268488
0.000223337
0.000100521
1.23336e-05
8.33336e-07
4.08156e-08
3.502e-09
8.54671e-09
5.56694e-07
4.18519e-05
0.000254292
0.000204722
0.000110337
1.63069e-05
1.38043e-06
1.09782e-07
4.75577e-09
9.75119e-09
5.92273e-07
3.41765e-05
0.000238497
0.000186709
0.000118637
2.08239e-05
2.19564e-06
1.67268e-07
2.00185e-08
1.12776e-08
8.75778e-07
3.59162e-05
0.00022857
0.000169199
0.000131215
2.70479e-05
3.43175e-06
4.11438e-07
2.91052e-08
1.37969e-08
6.047e-07
3.44588e-05
0.000214681
0.000151533
0.000138554
3.94887e-05
5.57083e-06
6.33141e-07
1.04238e-07
2.13034e-08
7.73744e-07
3.15065e-05
0.000206693
0.000133603
0.000145791
5.67762e-05
9.87397e-06
1.51617e-06
1.66247e-07
3.25219e-08
7.197e-07
2.55295e-05
0.000191398
0.000114826
0.000151877
7.76127e-05
1.63402e-05
2.72671e-06
5.38512e-07
8.9298e-08
5.63641e-07
2.12492e-05
0.000182335
9.58797e-05
0.000163063
0.00010019
2.76256e-05
5.92486e-06
1.0284e-06
1.61684e-07
4.45179e-07
1.4657e-05
0.000156965
7.61869e-05
0.000169729
0.000126056
4.33482e-05
1.16417e-05
2.96739e-06
7.88378e-07
5.54938e-07
1.2756e-05
0.000143641
0.114342
0.0281576
0.0260858
0.0260691
0.0260659
0.0260656
0.0260688
0.0260855
0.0281624
0.114414
0.0392576
0.00278314
0.00122953
0.00120791
0.00121094
0.00121245
0.00121241
0.00124369
0.00277778
0.0394023
0.0165599
0.00126987
0.00010199
9.93818e-05
9.54501e-05
9.6318e-05
9.80429e-05
9.57395e-05
0.00129164
0.0166451
0.00831742
0.000852731
6.7936e-07
2.62178e-07
8.66746e-07
7.61996e-07
9.60147e-08
5.21494e-06
0.00074175
0.00837385
0.00477162
0.00053574
1.30382e-08
1.68392e-09
9.40805e-10
3.92603e-10
2.4001e-10
1.52835e-06
0.000522061
0.00480813
0.00304915
0.000347131
1.51998e-08
1.23945e-13
4.90583e-13
1.92345e-13
2.15406e-13
8.94442e-07
0.000342029
0.00307288
0.00209949
0.000301874
7.77904e-08
1.22017e-13
1e-15
1e-15
3.98496e-11
3.12268e-06
0.000296518
0.00211571
0.00154004
0.000222034
2.12697e-07
8.63618e-13
1e-15
1e-15
3.98633e-11
1.06049e-06
0.00021345
0.0015558
0.00118962
0.000130801
3.33174e-07
6.75062e-12
1e-15
1e-15
1.19253e-10
7.57055e-07
0.00012152
0.00120334
0.00095119
9.40821e-05
4.69971e-07
5.79986e-11
1e-15
1e-15
2.24257e-10
5.7247e-07
8.18075e-05
0.000963866
0.000783303
6.33547e-05
6.29712e-07
1.02496e-09
1.3649e-14
1e-15
1.10299e-10
5.0855e-07
5.07582e-05
0.000795024
0.00065898
6.2187e-05
5.4558e-07
1.98395e-09
1.06278e-12
1e-15
4.5738e-10
5.99878e-07
4.75432e-05
0.000671148
0.000565229
6.31109e-05
1.09432e-06
5.86475e-09
5.0458e-11
1.20992e-15
4.87275e-10
5.70658e-07
5.14141e-05
0.000577638
0.000492265
6.59495e-05
1.16035e-06
1.14865e-08
1.15904e-10
9.48522e-15
8.93383e-10
6.29478e-07
5.13263e-05
0.000505664
0.0004347
7.25182e-05
1.59452e-06
1.72966e-08
1.95715e-10
6.65274e-14
1.232e-09
6.99383e-07
5.2251e-05
0.000448489
0.000388091
7.54344e-05
2.3168e-06
2.99025e-08
3.81029e-10
2.03088e-12
1.58966e-09
8.4137e-07
5.1204e-05
0.00040316
0.000349798
7.65024e-05
3.31109e-06
5.45603e-08
4.60142e-10
1.28525e-11
2.10016e-09
1.05063e-06
5.13233e-05
0.000365514
0.000317451
7.70812e-05
4.49745e-06
9.49775e-08
2.6144e-09
4.69876e-11
3.13518e-09
1.32931e-06
4.69509e-05
0.000335526
0.000289648
8.01772e-05
6.01309e-06
1.91138e-07
3.40852e-09
1.65363e-10
3.86319e-09
1.27384e-06
4.6052e-05
0.000309045
0.000265206
8.63073e-05
7.70323e-06
3.0457e-07
1.12303e-08
3.65434e-10
5.11755e-09
1.31218e-06
4.38002e-05
0.000288498
0.0002434
9.3966e-05
1.05245e-05
5.78357e-07
1.84101e-08
3.21789e-10
6.00038e-09
1.31316e-06
4.20822e-05
0.000268728
0.000223362
0.000101547
1.28942e-05
8.90021e-07
5.23781e-08
3.22502e-09
6.73155e-09
1.42416e-06
4.10133e-05
0.00025451
0.000204753
0.000111553
1.78387e-05
1.52076e-06
8.71934e-08
6.41056e-09
7.96453e-09
1.4183e-06
4.17723e-05
0.000238765
0.000186758
0.000119581
2.19124e-05
2.35339e-06
2.15161e-07
9.99603e-09
7.59868e-09
1.28502e-06
4.00983e-05
0.000228675
0.000169237
0.000131763
3.01865e-05
4.03005e-06
3.85201e-07
4.58324e-08
1.30968e-08
1.10992e-06
3.53872e-05
0.000214485
0.000151526
0.000138629
4.24228e-05
6.45082e-06
8.76648e-07
7.75718e-08
1.87714e-08
8.73268e-07
3.11344e-05
0.000206372
0.000133553
0.000145802
5.88959e-05
1.0875e-05
1.5725e-06
2.69638e-07
4.18276e-08
6.81153e-07
2.48632e-05
0.00019026
0.000114747
0.000152084
7.89665e-05
1.71512e-05
3.24703e-06
4.73796e-07
6.9077e-08
4.62642e-07
2.02686e-05
0.000182424
9.5796e-05
0.000163675
0.000101719
2.80113e-05
5.86166e-06
1.29986e-06
3.36103e-07
3.74971e-07
1.42113e-05
0.000154197
7.61652e-05
0.000170917
0.000127562
4.48603e-05
1.18517e-05
2.77819e-06
6.68755e-07
4.97798e-07
1.1546e-05
0.000147536
0.11436
0.0281589
0.0260886
0.0260717
0.0260688
0.026069
0.0260718
0.0260883
0.0281638
0.114432
0.0393149
0.00278433
0.00123186
0.00121521
0.00121496
0.00122447
0.00121587
0.00122875
0.00278686
0.0394596
0.0166148
0.00127019
0.00010262
9.82546e-05
9.57643e-05
9.26463e-05
9.79558e-05
0.000102946
0.00126228
0.016699
0.0083586
0.000850508
1.15206e-06
4.29209e-07
8.76888e-07
2.68183e-07
1.21804e-07
1.53961e-07
0.000739732
0.00841579
0.00480165
0.000533586
3.0928e-08
3.51159e-10
3.7847e-10
2.21971e-10
4.48742e-10
1.42189e-07
0.000519348
0.00483916
0.00307212
0.000344521
1.44213e-08
2.95024e-12
2.15994e-12
6.73024e-11
7.67122e-11
8.70805e-07
0.000343661
0.00309642
0.00211606
0.000298689
6.95443e-08
4.28463e-12
5.82237e-14
1.30907e-10
3.04812e-10
1.36055e-06
0.0002894
0.00213342
0.00155708
0.00020134
1.56855e-07
8.90852e-12
6.0939e-14
2.21501e-09
5.1245e-10
1.48218e-06
0.000229239
0.00156839
0.00120043
0.000152904
5.78922e-07
3.61999e-11
3.86687e-13
1.31078e-09
4.8682e-10
1.07865e-06
0.00016339
0.00121151
0.000960153
0.000120244
6.7456e-07
8.47777e-11
2.40901e-12
1.77091e-09
3.42829e-10
6.85451e-07
0.000107957
0.000971019
0.000789976
8.71837e-05
8.06035e-07
7.86495e-10
1.03648e-11
2.88489e-09
4.11866e-10
4.92006e-07
9.95229e-05
0.000802432
0.000665114
7.80815e-05
8.83553e-07
2.39969e-09
5.63901e-11
2.48591e-09
8.52202e-10
4.35635e-07
8.45213e-05
0.000676952
0.000570359
7.6749e-05
1.01125e-06
3.78905e-09
3.69208e-10
3.28538e-09
4.75965e-10
3.02475e-07
6.35075e-05
0.000583232
0.000496859
7.63645e-05
1.23385e-06
1.08127e-08
1.42636e-09
5.05681e-09
2.47311e-09
2.8369e-07
4.57674e-05
0.000511126
0.000438501
7.79432e-05
1.83182e-06
1.18738e-08
1.86346e-09
6.76782e-09
1.99884e-09
3.08309e-07
3.95724e-05
0.000452795
0.000391267
7.89467e-05
2.48396e-06
2.90939e-08
3.96255e-09
1.0356e-08
4.17615e-09
4.15535e-07
3.94632e-05
0.000406522
0.00035243
7.97582e-05
3.52008e-06
5.44811e-08
5.32501e-09
1.36078e-08
5.22672e-09
4.88992e-07
3.73992e-05
0.000368368
0.000319616
7.99065e-05
4.66211e-06
1.18135e-07
9.46721e-09
1.98512e-08
1.21887e-08
5.31781e-07
3.66184e-05
0.000338126
0.000291334
8.203e-05
6.53678e-06
2.31098e-07
1.62198e-08
2.54246e-08
1.94711e-08
6.40569e-07
3.60088e-05
0.000311282
0.000266538
8.69887e-05
8.02743e-06
4.05381e-07
2.78585e-08
3.25926e-08
3.5041e-08
7.29973e-07
3.52182e-05
0.000290264
0.000244353
9.45422e-05
1.05203e-05
6.20996e-07
4.97299e-08
4.16255e-08
4.75721e-08
8.7699e-07
3.48937e-05
0.000270168
0.000224039
0.000101858
1.31362e-05
1.00695e-06
8.20687e-08
5.29113e-08
6.26218e-08
7.84766e-07
3.33348e-05
0.000255474
0.000205078
0.000110735
1.68854e-05
1.5092e-06
1.62303e-07
6.6604e-08
7.99425e-08
7.81754e-07
3.16821e-05
0.000239279
0.000186847
0.00011946
2.17648e-05
2.44778e-06
2.4291e-07
9.86878e-08
9.73217e-08
7.68506e-07
3.0583e-05
0.000228926
0.000169037
0.000130979
2.83208e-05
3.84241e-06
5.04268e-07
1.30112e-07
1.27157e-07
7.95874e-07
3.02545e-05
0.000214619
0.000151301
0.000139068
4.14185e-05
6.0407e-06
8.1394e-07
2.3849e-07
1.79146e-07
7.62487e-07
2.82367e-05
0.000206402
0.000133221
0.000144373
5.62665e-05
1.06949e-05
1.73612e-06
3.37355e-07
2.20642e-07
6.90237e-07
2.3e-05
0.00019079
0.000114792
0.000151947
7.85809e-05
1.67419e-05
3.1852e-06
7.53369e-07
4.02304e-07
6.32543e-07
1.93597e-05
0.000181303
9.60372e-05
0.000160762
9.81869e-05
2.88092e-05
6.37444e-06
1.35551e-06
4.85259e-07
6.98311e-07
1.33667e-05
0.00015658
7.8079e-05
0.000171525
0.0001271
4.21154e-05
1.24585e-05
3.33126e-06
1.16762e-06
8.65775e-07
1.20254e-05
0.000142348
0.114432
0.0281769
0.0261047
0.0260886
0.0260861
0.0260856
0.0260886
0.0261052
0.0281815
0.114502
0.0395064
0.00281305
0.00126143
0.00123208
0.00122909
0.00124303
0.00123481
0.00124591
0.0028093
0.0396502
0.0167642
0.00129488
0.000101354
9.13507e-05
9.06573e-05
9.56923e-05
0.00010073
0.000107215
0.00129114
0.0168499
0.00845203
0.000842029
3.67735e-06
3.5924e-07
4.60846e-07
5.21966e-06
1.59848e-06
1.52792e-06
0.000842885
0.0085193
0.00486176
0.000532931
1.56098e-06
1.58415e-08
1.30147e-08
1.78114e-06
1.07492e-07
1.93497e-07
0.000535121
0.00490159
0.00311004
0.000336338
5.29183e-06
7.57369e-09
1.38707e-08
8.63588e-07
4.74702e-08
1.73688e-07
0.000337059
0.00313499
0.00214278
0.000290444
2.62671e-06
2.19533e-08
4.76808e-07
1.61202e-06
1.11636e-07
3.60527e-07
0.000293035
0.00215988
0.00157342
0.000204525
2.67247e-06
9.81957e-08
4.27911e-07
2.21687e-06
1.17036e-07
4.65229e-07
0.000210376
0.00158738
0.00121416
0.000132633
1.73641e-06
5.69264e-08
7.27363e-07
1.21213e-06
2.90338e-07
4.93293e-07
0.000103639
0.0012261
0.000971159
8.91916e-05
1.83948e-06
1.19112e-07
4.35521e-07
1.33107e-06
2.17527e-07
8.49493e-07
7.92377e-05
0.000980257
0.000798112
8.27725e-05
2.32324e-06
1.94113e-07
5.27389e-07
1.34456e-06
2.2665e-07
7.68831e-07
6.03377e-05
0.000806792
0.000672041
7.84915e-05
2.44852e-06
4.25401e-07
5.70108e-07
1.09e-06
5.35175e-07
1.07243e-06
6.12995e-05
0.000679259
0.000576073
7.60352e-05
2.44221e-06
3.41854e-07
8.66521e-07
1.02162e-06
4.92583e-07
8.80742e-07
5.37746e-05
0.000583404
0.000501637
7.49712e-05
2.31997e-06
9.51891e-07
9.82388e-07
1.05429e-06
7.68193e-07
1.1071e-06
5.59675e-05
0.000509189
0.000442604
7.3904e-05
2.65805e-06
7.77403e-07
1.19212e-06
1.30394e-06
7.627e-07
1.26062e-06
4.76324e-05
0.000450834
0.000395252
7.40037e-05
3.19422e-06
1.22762e-06
1.36793e-06
1.56105e-06
9.51857e-07
1.46117e-06
4.76111e-05
0.000404888
0.000355921
7.64282e-05
4.56035e-06
1.29068e-06
1.63827e-06
1.88432e-06
9.93053e-07
1.57052e-06
4.84335e-05
0.000367048
0.000322852
7.87114e-05
5.57586e-06
1.55139e-06
1.87543e-06
2.3107e-06
1.10488e-06
2.02773e-06
4.82725e-05
0.000336695
0.000294402
8.18173e-05
7.4076e-06
2.28316e-06
2.26776e-06
2.68824e-06
1.36901e-06
2.58859e-06
4.82807e-05
0.000310283
0.000269252
8.74121e-05
8.71453e-06
2.88605e-06
2.58705e-06
3.07842e-06
1.80128e-06
3.35494e-06
4.78431e-05
0.000289326
0.00024674
9.4119e-05
1.14418e-05
3.88473e-06
3.00645e-06
3.38203e-06
2.45828e-06
3.90305e-06
5.0711e-05
0.000269755
0.000225949
0.000101682
1.3717e-05
4.4922e-06
3.37001e-06
3.72335e-06
3.17359e-06
4.42907e-06
5.07938e-05
0.000255022
0.00020659
0.000111804
1.8462e-05
5.70945e-06
3.84657e-06
4.06921e-06
3.92604e-06
4.88301e-06
4.75589e-05
0.000239401
0.000187656
0.000119033
2.24312e-05
6.76941e-06
4.44118e-06
4.44526e-06
4.55908e-06
5.30551e-06
4.40589e-05
0.000228406
0.000169108
0.000132131
3.04561e-05
8.94266e-06
5.33463e-06
5.04808e-06
5.17865e-06
5.82336e-06
3.9165e-05
0.000214635
0.00015005
0.000139996
4.1464e-05
1.14006e-05
6.45904e-06
5.72027e-06
5.86748e-06
6.33349e-06
3.4608e-05
0.000205365
0.000130426
0.00014848
6.22772e-05
1.72065e-05
8.20402e-06
6.6769e-06
6.71434e-06
7.19655e-06
2.99743e-05
0.000190652
0.000109433
0.00015921
8.39341e-05
2.43961e-05
1.14919e-05
7.96714e-06
7.74794e-06
8.30095e-06
2.58082e-05
0.000181433
8.90306e-05
0.000175818
0.000118035
4.06428e-05
1.66554e-05
1.06712e-05
9.65435e-06
1.00494e-05
2.41673e-05
0.00015926
7.54537e-05
0.00019823
0.000161102
6.97165e-05
3.08331e-05
1.62099e-05
1.24886e-05
1.31844e-05
2.74702e-05
0.00014588
0.114696
0.030082
0.0281822
0.028164
0.0281629
0.0281628
0.028164
0.0281819
0.0300852
0.114763
0.039918
0.00473372
0.00281556
0.00278207
0.0027825
0.00277881
0.00278162
0.00281117
0.00473049
0.0400507
0.0169979
0.00227047
0.00127799
0.00126959
0.00127886
0.00127317
0.00126951
0.00129106
0.00222342
0.0171019
0.00857234
0.00153369
0.000845995
0.000848808
0.000750696
0.000851711
0.000847914
0.000841271
0.00172335
0.00866411
0.00493379
0.00128975
0.000541059
0.000533999
0.000530614
0.000530676
0.000532511
0.000535187
0.00130288
0.00498917
0.00313377
0.000895856
0.000358087
0.000347311
0.000348954
0.000350679
0.000345816
0.000339475
0.000909078
0.00317674
0.00215325
0.000617999
0.000275516
0.000302062
0.000302174
0.000291351
0.000299524
0.000295691
0.000749547
0.00217415
0.00157058
0.000515168
0.000227841
0.000233151
0.00021707
0.00024092
0.000206196
0.000214762
0.000554264
0.00158851
0.00120169
0.000414815
0.000151912
0.000166663
0.000126211
0.000178115
0.000138122
0.000152799
0.000418418
0.00121661
0.000954118
0.000326443
0.000147862
0.000121987
8.38812e-05
0.000134661
0.000115456
0.000116735
0.000308311
0.000968348
0.000779074
0.000285311
0.00012797
7.73644e-05
5.61472e-05
0.000111018
8.21556e-05