/*--------------------------------*- C++ -*----------------------------------*\
| =========                 |                                                 |
| \\      /  F ield         | OpenFOAM: The Open Source CFD Toolbox           |
|  \\    /   O peration     | Version:  4.1                                   |
|   \\  /    A nd           | Web:      www.OpenFOAM.org                      |
|    \\/     M anipulation  |                                                 |
\*---------------------------------------------------------------------------*/
FoamFile
{
    version     2.0;
    format      ascii;
    class       volScalarField;
    location    "400";
    object      nut;
}
// * * * * * * * * * * * * * * * * * * * * * * * * * * * * * * * * * * * * * //

dimensions      [0 2 -1 0 0 0 0];

internalField   nonuniform List<scalar> 
12000
(
0.0038362
0.00380312
0.00379835
0.0037971
0.0037968
0.0037968
0.00379711
0.0037983
0.00380268
0.00383576
0.00225862
0.00224318
0.00223167
0.00222636
0.00222476
0.00222477
0.0022264
0.00223181
0.00224341
0.00225908
0.00146081
0.00146388
0.00145393
0.00144742
0.00144503
0.00144502
0.0014474
0.00145393
0.00146389
0.00146133
0.00102816
0.00103986
0.0010327
0.00102677
0.00102418
0.0010242
0.00102676
0.00103252
0.0010403
0.00102863
0.000774929
0.000788759
0.000783488
0.000778356
0.000775824
0.000775878
0.000778422
0.00078318
0.000788895
0.000775304
0.000616164
0.000629551
0.000626681
0.000622657
0.000620374
0.00062039
0.00062278
0.0006266
0.000629605
0.000616536
0.00050987
0.000521349
0.000520592
0.00051691
0.000514651
0.000514878
0.000517137
0.000520286
0.000521179
0.000510441
0.000435016
0.000445463
0.000445443
0.000443265
0.000441679
0.000441464
0.000443487
0.000446094
0.000445411
0.000435871
0.000379921
0.000389807
0.000390767
0.00038969
0.000387713
0.000388157
0.000390017
0.000392134
0.000389818
0.000381107
0.000337952
0.000347652
0.000349403
0.000348742
0.000347161
0.000347367
0.000349046
0.000350942
0.000347832
0.000339505
0.000305042
0.000314463
0.000317473
0.000316571
0.000315166
0.000315371
0.000317
0.00031865
0.000314899
0.000307016
0.000278624
0.00028786
0.000291593
0.000290601
0.000289513
0.000289699
0.000291131
0.00029256
0.00028869
0.000281072
0.000256996
0.000266098
0.000270172
0.000269475
0.00026842
0.000268659
0.000269975
0.000271281
0.000266905
0.000259957
0.000238881
0.000247695
0.000252147
0.000251839
0.000250786
0.000251219
0.000252421
0.0002535
0.000248903
0.000242481
0.000223491
0.000232406
0.000237212
0.000237055
0.000236124
0.000236572
0.000237728
0.000238774
0.000234319
0.000227945
0.000210271
0.000219659
0.000224626
0.000224492
0.000223797
0.000224249
0.000225299
0.00022639
0.000222137
0.000215737
0.0001987
0.000208594
0.000213745
0.000213682
0.00021316
0.000213556
0.000214606
0.000215801
0.000211841
0.000205439
0.000188374
0.000198944
0.000204213
0.00020425
0.000203924
0.000204438
0.00020547
0.000206737
0.000202997
0.000196618
0.000178951
0.000190295
0.000195786
0.000195981
0.000195871
0.000196396
0.000197434
0.000198904
0.000195411
0.000189143
0.00017011
0.00018239
0.000188164
0.000188595
0.000188743
0.000189483
0.000190557
0.000192052
0.000188791
0.000182656
0.000161537
0.000174895
0.000181252
0.000182024
0.000182382
0.000183156
0.000184324
0.000186116
0.000183212
0.000177275
0.00015287
0.000167633
0.000174721
0.000176003
0.00017667
0.00017783
0.0001791
0.000180934
0.000178335
0.000172579
0.000143672
0.000160118
0.000168587
0.000170494
0.000171408
0.000172679
0.000174207
0.000176474
0.000174435
0.000168952
0.000133218
0.000152083
0.000162292
0.00016521
0.000166676
0.000168495
0.000170174
0.000172536
0.000170989
0.000165844
0.000120447
0.000142412
0.000155883
0.000160038
0.000161878
0.000163912
0.000166194
0.000169321
0.000168561
0.000163886
0.000102384
0.00013047
0.000148005
0.000154653
0.000157655
0.000160413
0.000162812
0.000166327
0.000166293
0.000162472
7.56925e-05
0.000113229
0.000138449
0.000147881
0.000152171
0.000155693
0.00015931
0.000164124
0.000165083
0.000162224
6.23808e-05
9.24441e-05
0.000123212
0.000139698
0.000146951
0.00015171
0.000155306
0.000161343
0.000164158
0.000163558
7.33332e-05
8.79855e-05
0.000101189
0.000118216
0.000134699
0.000145106
0.000151199
0.0001585
0.000163962
0.000164145
9.33146e-05
0.000105748
0.000109816
0.000110761
0.000114573
0.000126286
0.000138653
0.000152831
0.000162116
0.000169604
0.00380311
0.000111415
9.49679e-05
9.48703e-05
9.48793e-05
9.48793e-05
9.487e-05
9.49675e-05
0.000111397
0.00380362
0.00224315
2.46293e-05
9.83663e-06
9.69499e-06
9.69665e-06
9.70148e-06
9.69875e-06
9.82117e-06
2.45447e-05
0.00224649
0.00146381
1.58512e-05
4.94808e-06
5.14379e-06
5.22161e-06
5.16319e-06
4.97773e-06
5.43467e-06
1.54148e-05
0.0014677
0.00103973
1.70723e-05
5.05637e-06
5.28021e-06
5.31454e-06
5.34314e-06
5.21672e-06
5.21001e-06
2.10397e-05
0.00104442
0.000788561
2.53662e-05
4.6659e-06
4.69929e-06
4.71562e-06
4.74354e-06
4.68928e-06
4.8229e-06
2.71412e-05
0.000792578
0.000629302
3.02493e-05
4.61959e-06
4.63793e-06
4.66985e-06
4.72557e-06
4.65121e-06
4.53155e-06
3.1195e-05
0.000632647
0.000520994
4.16798e-05
5.63709e-06
5.79663e-06
5.94654e-06
5.98802e-06
5.7764e-06
5.90245e-06
3.25654e-05
0.000523669
0.000445062
5.03092e-05
6.18987e-06
5.72699e-06
5.19895e-06
5.88916e-06
5.64447e-06
5.65521e-06
2.95436e-05
0.000447718
0.000389317
5.16259e-05
6.07942e-06
3.43098e-06
5.29675e-06
3.91959e-06
3.52083e-06
4.27776e-06
2.8107e-05
0.000391775
0.000347059
5.62061e-05
9.00715e-06
4.19362e-06
6.8623e-06
3.69767e-06
3.94852e-06
4.208e-06
3.87758e-05
0.000349384
0.000313743
4.62272e-05
1.02318e-05
5.48528e-06
8.42423e-06
6.91328e-06
5.91245e-06
5.65042e-06
5.59303e-05
0.000316131
0.000286987
7.08019e-05
1.59155e-05
1.13829e-05
9.00853e-06
1.2803e-05
8.26467e-06
7.29444e-06
6.97453e-05
0.000289731
0.000265046
7.60756e-05
2.09462e-05
2.16581e-05
2.18555e-05
1.66448e-05
1.40099e-05
1.36674e-05
7.44225e-05
0.000267811
0.000246464
7.86716e-05
3.01401e-05
2.95348e-05
3.82156e-05
2.62089e-05
1.99955e-05
1.86367e-05
8.51865e-05
0.000249751
0.000230942
8.98806e-05
3.95906e-05
3.26758e-05
3.87922e-05
3.42746e-05
2.97673e-05
2.41701e-05
0.00010361
0.000235137
0.0002179
0.000104327
4.06885e-05
3.57278e-05
3.76644e-05
3.45492e-05
3.3069e-05
3.09186e-05
0.000112387
0.000223045
0.000206498
0.000115607
4.46422e-05
4.0518e-05
4.13236e-05
3.79931e-05
3.80636e-05
3.38724e-05
0.000118045
0.000212704
0.000196436
0.00012438
4.01181e-05
4.66033e-05
4.69932e-05
4.05453e-05
4.49105e-05
3.87699e-05
0.0001221
0.000203912
0.000187344
0.000129855
4.43847e-05
4.65998e-05
4.5039e-05
4.67822e-05
4.58911e-05
5.20854e-05
0.000119742
0.000196074
0.000178906
0.000135159
5.06825e-05
5.05195e-05
5.07351e-05
5.93953e-05
5.40691e-05
5.10522e-05
0.000117084
0.000189386
0.000170908
0.0001403
5.97719e-05
5.41056e-05
5.55703e-05
5.78578e-05
5.41196e-05
5.96159e-05
0.000113163
0.00018319
0.000163075
0.000146101
6.84347e-05
5.9316e-05
5.88031e-05
5.85478e-05
5.71994e-05
6.76307e-05
0.000110343
0.000178056
0.000155234
0.000154241
7.49759e-05
6.58274e-05
6.30256e-05
6.65406e-05
6.32807e-05
6.67175e-05
0.000106112
0.000172969
0.00014693
0.000156135
9.22841e-05
7.41487e-05
7.34766e-05
7.60053e-05
7.23231e-05
7.31022e-05
0.000103652
0.00016899
0.000137801
0.000163059
0.000103722
8.20154e-05
8.28248e-05
8.28137e-05
7.96602e-05
7.67711e-05
9.96704e-05
0.000164537
0.000126827
0.000165203
0.000124251
9.18703e-05
8.81848e-05
8.68595e-05
8.3894e-05
7.88535e-05
9.94906e-05
0.000161286
0.000113443
0.000182042
0.00013718
9.86687e-05
9.46805e-05
9.22224e-05
8.91461e-05
8.58486e-05
9.44639e-05
0.000157395
9.58529e-05
0.000188569
0.000172876
0.000118778
0.000100233
9.78469e-05
9.56088e-05
8.49214e-05
0.000117856
0.000153831
8.57544e-05
0.000215475
0.000205137
0.000139175
0.000115804
0.000108187
0.000106554
0.000106023
8.90928e-05
0.000151629
8.83605e-05
0.000238134
0.000246726
0.000220705
0.000144201
0.000123538
0.000120358
0.000115925
0.000130848
0.000149474
0.00379835
9.49716e-05
7.95746e-05
7.95206e-05
7.95157e-05
7.95195e-05
7.95197e-05
7.95761e-05
9.49536e-05
0.00379946
0.00223163
9.83256e-06
2.44333e-06
2.41035e-06
2.40078e-06
2.40678e-06
2.40707e-06
2.44681e-06
9.79392e-06
0.00223579
0.00145391
5.31076e-06
5.58865e-08
5.16209e-08
5.17982e-08
5.08309e-08
5.1533e-08
5.52381e-08
5.147e-06
0.00145773
0.00103253
5.03912e-06
3.89175e-10
2.72613e-10
1.65775e-10
9.85909e-11
1.29504e-10
2.37363e-10
5.14455e-06
0.00103701
0.000783136
4.53661e-06
2.81562e-10
1.60082e-10
2.04923e-11
1.48545e-11
1.11511e-11
1.97343e-10
4.73488e-06
0.000786913
0.000626398
4.27773e-06
1.16399e-09
5.42944e-10
2.64131e-10
7.36526e-11
1.48737e-10
9.68508e-10
4.51744e-06
0.000629236
0.000519864
6.69855e-06
5.53684e-09
1.7283e-09
4.41814e-09
3.55173e-10
3.68881e-09
4.0098e-09
6.99112e-06
0.000522439
0.000445658
6.21764e-06
2.11007e-09
1.68885e-09
4.73576e-08
3.78805e-09
5.67377e-09
7.61834e-09
6.99935e-06
0.000447338
0.000391031
5.02966e-06
1.77898e-09
1.98445e-09
3.86543e-08
1.72372e-09
4.2609e-09
1.84667e-09
5.50021e-06
0.00039264
0.000349579
4.87283e-06
3.02996e-09
5.89217e-09
5.90425e-08
3.18071e-09
2.9834e-09
1.23633e-09
5.61452e-06
0.00035134
0.000317215
6.68182e-06
3.20187e-09
3.64382e-09
1.10696e-07
4.50491e-09
1.12851e-08
2.52799e-09
6.46841e-06
0.000318978
0.000290928
7.62741e-06
1.27197e-08
7.17688e-09
1.45631e-07
9.82179e-09
2.15784e-08
1.23112e-08
1.00902e-05
0.000292713
0.000269335
1.1958e-05
9.44565e-08
1.53686e-08
1.25163e-07
2.12128e-08
8.48516e-08
3.10764e-08
1.44737e-05
0.000271226
0.000251465
2.14141e-05
8.11091e-08
3.88836e-08
1.12905e-07
4.56348e-08
1.52461e-07
3.91937e-08
2.02076e-05
0.000253451
0.000236212
3.23272e-05
4.13474e-07
9.2947e-08
2.60419e-07
1.03183e-07
2.34437e-07
4.42013e-07
2.82872e-05
0.000238446
0.000223168
4.64083e-05
6.10474e-07
4.0968e-08
7.81958e-07
2.66568e-07
4.24996e-07
2.17927e-07
3.14255e-05
0.000225959
0.000211836
5.30937e-05
9.14441e-07
4.02373e-07
8.78813e-07
7.10585e-07
9.46103e-07
2.84062e-07
3.59105e-05
0.000215176
0.000201768
6.23473e-05
1.3645e-06
4.72572e-07
2.13702e-06
1.4112e-06
1.76569e-06
6.19781e-07
4.00565e-05
0.000206105
0.000192675
7.34843e-05
2.85664e-06
7.99933e-07
1.967e-06
2.22103e-06
2.49256e-06
7.57172e-07
4.7581e-05
0.000197891
0.000184296
8.31546e-05
4.69897e-06
9.30981e-07
1.55683e-06
3.11005e-06
3.23054e-06
8.12103e-07
5.20797e-05
0.000191139
0.00017645
9.31553e-05
8.71678e-06
1.62634e-06
2.26615e-06
4.49762e-06
4.2519e-06
1.20439e-06
5.24382e-05
0.000184548
0.000168878
0.000104031
1.14266e-05
2.40968e-06
4.19699e-06
5.21851e-06
4.88519e-06
1.59672e-06
5.207e-05
0.000179435
0.000161492
0.000115987
1.94752e-05
4.17925e-06
5.16322e-06
6.22128e-06
5.74764e-06
2.49108e-06
4.94341e-05
0.000173743
0.00015394
0.000125667
2.30871e-05
4.88233e-06
6.07726e-06
7.00494e-06
6.27867e-06
3.53803e-06
4.61078e-05
0.000169753
0.000146186
0.000139173
3.74561e-05
8.38955e-06
7.88936e-06
8.15903e-06
7.3624e-06
5.57789e-06
4.25618e-05
0.000164283
0.000137718
0.000143026
5.11129e-05
1.15839e-05
9.10299e-06
9.93696e-06
8.60144e-06
6.81355e-06
3.76425e-05
0.000160795
0.000128447
0.000153567
7.71853e-05
1.87719e-05
1.14043e-05
1.09837e-05
1.02558e-05
8.83015e-06
3.38063e-05
0.000154629
0.000117656
0.000163521
9.77834e-05
2.80348e-05
1.47801e-05
1.26954e-05
1.15334e-05
1.08668e-05
2.87759e-05
0.000150322
0.000106136
0.000180626
0.000141429
4.65908e-05
2.03839e-05
1.56761e-05
1.45262e-05
1.3816e-05
2.89347e-05
0.000140534
9.77287e-05
0.000202138
0.000177209
8.58714e-05
3.71841e-05
2.44828e-05
1.95162e-05
1.7388e-05
2.29771e-05
0.000134737
0.0037971
9.48738e-05
7.95211e-05
7.94654e-05
7.94633e-05
7.94636e-05
7.94658e-05
7.95177e-05
9.48558e-05
0.0037983
0.00222633
9.69734e-06
2.41046e-06
2.37421e-06
2.36927e-06
2.3704e-06
2.37532e-06
2.40872e-06
9.66094e-06
0.00223046
0.00144736
5.24244e-06
5.15341e-08
4.90612e-08
4.86915e-08
4.70799e-08
4.74251e-08
4.65093e-08
5.13835e-06
0.00145107
0.00102663
5.32026e-06
2.94963e-10
2.33476e-11
6.33629e-11
1.28659e-10
1.35227e-10
4.38448e-11
5.23564e-06
0.00103072
0.00077807
4.64502e-06
1.7104e-10
1.74021e-14
1.07452e-13
2.0537e-14
3.26784e-14
6.85246e-12
4.63717e-06
0.000781525
0.000622336
4.468e-06
7.84564e-10
4.38969e-15
5.46787e-18
1.88937e-18
4.99812e-18
1.36346e-11
4.64783e-06
0.000625002
0.000516538
7.26272e-06
2.04357e-09
5.60457e-14
8.1984e-15
1.9123e-17
2.3466e-15
1.02869e-10
5.78244e-06
0.000518753
0.000442492
7.8215e-06
2.64112e-09
6.15851e-13
9.46593e-14
1.92391e-14
4.2889e-14
2.65335e-10
5.61454e-06
0.000444895
0.000388464
7.47859e-06
5.19944e-09
7.97957e-13
2.17255e-13
3.71257e-14
1.75941e-13
3.26588e-10
3.69629e-06
0.00039127
0.000347611
8.45972e-06
3.81412e-09
2.99168e-12
1.01843e-12
6.22069e-13
3.77569e-13
4.33224e-10
3.27945e-06
0.000350218
0.000315135
1.33052e-05
1.17209e-08
3.89215e-12
4.74571e-12
3.33584e-12
2.88377e-12
2.68643e-09
6.0924e-06
0.000318002
0.000289403
1.74737e-05
2.35914e-08
8.64069e-12
1.5077e-10
4.25835e-12
1.08335e-11
1.88898e-08
1.17456e-05
0.000292199
0.00026814
2.10606e-05
4.91186e-08
3.2874e-11
1.10933e-11
2.13927e-11
3.71338e-11
5.01166e-08
1.78791e-05
0.00027112
0.000250321
2.60326e-05
1.15353e-07
9.59033e-12
9.65481e-10
5.04984e-11
2.74068e-10
8.68959e-08
2.1739e-05
0.000253701
0.000235226
3.65995e-05
1.17897e-07
7.31969e-11
6.64624e-12
1.75133e-10
8.04959e-10
5.32943e-08
2.61623e-05
0.000238908
0.000222164
4.36294e-05
1.92913e-07
1.42925e-09
2.83057e-09
5.53809e-10
1.56678e-09
9.02827e-08
3.11072e-05
0.000226543
0.00021083
5.15502e-05
4.1858e-07
2.45914e-09
3.71637e-09
2.84154e-09
4.01057e-09
1.59789e-07
3.33461e-05
0.000215718
0.000200756
5.86133e-05
8.44962e-07
4.76264e-09
2.08119e-08
9.39333e-09
1.32278e-08
2.06505e-07
3.54722e-05
0.000206668
0.000191678
6.75448e-05
2.73338e-06
2.42399e-08
7.5187e-09
1.08294e-08
2.07765e-08
4.12819e-07
3.96681e-05
0.00019834
0.000183365
7.83261e-05
5.55163e-06
1.19064e-07
2.06551e-08
1.37913e-08
3.21808e-08
4.95208e-07
3.43761e-05
0.000191633
0.000175568
9.12434e-05
9.52403e-06
3.45422e-07
3.78828e-08
2.77962e-08
4.48535e-08
6.32046e-07
3.63517e-05
0.000184899
0.000168147
0.000107239
1.37099e-05
8.99868e-07
8.68396e-08
4.72638e-08
6.10392e-08
8.98523e-07
3.45117e-05
0.000179968
0.000160903
0.00011698
2.02843e-05
1.51973e-06
1.56732e-07
6.9257e-08
8.44089e-08
1.0457e-06
4.31896e-05
0.000174258
0.000153641
0.000132075
2.66949e-05
3.20506e-06
3.34419e-07
1.21921e-07
1.11798e-07
1.12963e-06
4.6557e-05
0.000170643
0.000146232
0.000143283
3.7511e-05
4.78307e-06
6.16669e-07
1.61602e-07
1.50535e-07
1.14532e-06
4.32986e-05
0.000165239
0.00013842
0.000146868
6.09805e-05
8.95488e-06
1.27115e-06
4.28318e-07
2.28263e-07
1.35033e-06
3.9206e-05
0.000161984
0.000129974
0.000152877
7.23348e-05
1.53497e-05
2.62505e-06
5.17791e-07
2.98837e-07
1.25229e-06
3.18391e-05
0.000155937
0.000120685
0.000160787
9.7329e-05
2.22809e-05
4.7493e-06
1.62779e-06
5.13105e-07
9.58813e-07
2.57026e-05
0.000151181
0.000110474
0.000170101
0.000115654
3.79866e-05
9.2617e-06
2.19814e-06
7.05196e-07
1.01212e-06
1.74692e-05
0.000141661
9.95789e-05
0.000181313
0.000150513
5.26513e-05
1.59968e-05
5.6713e-06
1.56994e-06
1.18937e-06
1.27506e-05
0.000131455
0.00379679
9.48831e-05
7.95199e-05
7.94629e-05
7.9459e-05
7.9461e-05
7.94652e-05
7.95203e-05
9.48651e-05
0.00379799
0.00222472
9.70677e-06
2.40673e-06
2.36891e-06
2.36068e-06
2.36382e-06
2.36828e-06
2.4114e-06
9.66051e-06
0.00222883
0.00144493
5.19077e-06
5.24627e-08
4.87193e-08
4.73574e-08
4.78381e-08
4.82905e-08
4.60274e-08
5.37458e-06
0.00144866
0.00102403
5.38047e-06
8.67883e-11
2.32977e-11
3.87165e-11
3.50891e-11
2.66695e-10
4.45648e-11
4.08487e-06
0.00102757
0.00077564
4.79889e-06
3.98497e-11
1.54841e-14
2.82191e-14
2.15517e-14
2.36563e-13
6.97561e-12
4.54982e-06
0.000778662
0.000619978
4.77795e-06
1.02111e-09
7.74452e-17
3.50667e-20
1.46081e-19
6.06324e-17
1.04066e-11
4.64909e-06
0.000622472
0.000514613
6.01852e-06
4.37576e-09
8.42873e-14
7.06557e-20
4.89153e-22
5.9326e-16
1.01857e-10
5.86818e-06
0.000516495
0.000440196
6.79987e-06
4.80776e-08
1.8436e-12
1.19117e-19
7.66203e-22
7.37521e-15
2.93347e-10
5.73268e-06
0.000442898
0.000386994
5.05801e-06
2.74007e-08
6.32475e-11
1.56839e-19
2.05351e-20
4.88819e-15
9.25716e-11
3.76168e-06
0.000389509
0.00034614
5.48528e-06
7.71814e-08
1.10372e-11
1.2258e-18
7.22052e-18
1.23112e-14
2.29445e-10
3.33061e-06
0.000348627
0.000314245
7.70053e-06
1.00536e-07
3.84813e-11
1.16145e-15
1.8307e-17
1.36155e-13
1.62928e-09
6.219e-06
0.000316577
0.000288272
1.03828e-05
1.43892e-07
7.96539e-11
3.75686e-10
8.10077e-16
3.23299e-13
5.79224e-09
1.23486e-05
0.00029093
0.000266971
2.00598e-05
4.43276e-07
2.49692e-09
2.3503e-14
4.82863e-15
1.84549e-11
4.60419e-08
1.94121e-05
0.000269883
0.000249104
2.44698e-05
6.34012e-07
6.65415e-09
1.34247e-11
2.22852e-14
1.00993e-11
3.71287e-08
2.55256e-05
0.000252497
0.000234068
3.3144e-05
1.13666e-06
1.36654e-08
1.44198e-10
6.29132e-13
7.46177e-11
5.88361e-08
3.27266e-05
0.000237781
0.000221149
3.98905e-05
1.92331e-06
1.79525e-08
2.92175e-10
2.3104e-12
2.24511e-10
1.06382e-07
3.58724e-05
0.000225461
0.000209947
4.65806e-05
2.889e-06
5.25265e-08
7.34273e-10
5.32098e-12
4.87398e-10
1.05453e-07
3.43021e-05
0.000214666
0.000200016
5.36734e-05
3.99181e-06
1.08193e-07
2.76232e-09
1.00335e-10
1.74336e-09
2.48338e-07
3.90205e-05
0.000205665
0.000191065
6.71632e-05
6.06012e-06
2.38646e-07
9.06966e-09
4.94047e-11
5.67504e-09
3.53615e-07
3.75126e-05
0.000197347
0.000182838
7.68876e-05
7.96951e-06
3.65797e-07
1.34141e-08
8.31851e-10
1.04666e-08
4.75664e-07
4.11357e-05
0.00019067
0.000175158
8.95737e-05
1.13584e-05
6.92046e-07
4.35295e-08
8.22714e-10
2.74084e-08
6.58507e-07
3.83564e-05
0.000183983
0.000167801
0.00010183
1.42492e-05
1.01606e-06
5.36541e-08
5.26598e-09
3.52656e-08
6.59743e-07
4.42623e-05
0.000179053
0.000160656
0.000114815
2.00686e-05
1.77285e-06
1.74345e-07
1.84145e-08
2.96253e-08
8.0004e-07
3.32446e-05
0.000173403
0.000153425
0.000124532
2.47645e-05
2.87049e-06
2.37432e-07
3.1551e-08
2.4443e-08
1.24187e-06
3.97826e-05
0.000169755
0.000146054
0.000138979
3.35643e-05
4.28062e-06
6.85388e-07
5.32871e-08
2.93061e-08
1.05513e-06
4.21309e-05
0.000164517
0.000138219
0.00014254
5.26719e-05
7.60121e-06
8.42055e-07
1.47721e-07
3.82358e-08
1.28984e-06
3.98713e-05
0.000161428
0.000129784
0.0001521
7.08034e-05
1.33109e-05
2.40272e-06
2.63922e-07
4.34013e-08
1.1367e-06
3.33823e-05
0.00015534
0.000120319
0.00015928
9.5208e-05
2.21007e-05
3.76449e-06
7.266e-07
1.20481e-07
9.27249e-07
2.72557e-05
0.000151618
0.000109946
0.000172774
0.000118804
3.67568e-05
8.74117e-06
1.52843e-06
2.89434e-07
6.62517e-07
1.8966e-05
0.000140675
9.80065e-05
0.000179533
0.00014929
5.66538e-05
1.60087e-05
4.07717e-06
1.05148e-06
7.38104e-07
1.30584e-05
0.000134572
0.0037968
9.48832e-05
7.95196e-05
7.94617e-05
7.9461e-05
7.94622e-05
7.94635e-05
7.95208e-05
9.48651e-05
0.00379799
0.00222473
9.70899e-06
2.40746e-06
2.36535e-06
2.36378e-06
2.36513e-06
2.3694e-06
2.39936e-06
9.66211e-06
0.00222882
0.00144492
5.17975e-06
5.04717e-08
5.09842e-08
4.75113e-08
4.84542e-08
4.93398e-08
5.70151e-08
5.3662e-06
0.00144863
0.00102402
5.37535e-06
9.70303e-11
5.14944e-11
1.37688e-10
1.39705e-10
1.79917e-11
3.14933e-10
4.07934e-06
0.00102749
0.000775617
4.78363e-06
1.77792e-11
6.49145e-14
2.55518e-13
1.06023e-13
6.28483e-15
1.03943e-10
4.55615e-06
0.000778579
0.000620017
4.79685e-06
6.6924e-11
3.33884e-18
8.99359e-20
4.08839e-17
1.67179e-18
1.48162e-10
4.66357e-06
0.000622425
0.000514483
6.08448e-06
2.99235e-10
5.21382e-17
1.28651e-20
4.04875e-20
6.11196e-16
3.20908e-09
5.91001e-06
0.000516467
0.000440636
6.35695e-06
1.46646e-09
9.47317e-16
1.02086e-18
2.99455e-20
1.67924e-15
1.37535e-09
5.86993e-06
0.000442886
0.000387275
4.06217e-06
1.85526e-09
4.3728e-15
9.72533e-19
3.75093e-20
2.73219e-14
1.57858e-09
3.49508e-06
0.0003895
0.000346297
5.15427e-06
5.14276e-09
1.91618e-13
7.70754e-19
7.88476e-20
1.8719e-13
2.45168e-09
4.03865e-06
0.000348596
0.000314253
6.20122e-06
1.17226e-08
2.99503e-12
1.95866e-17
9.69493e-20
8.11892e-13
4.82159e-09
4.53449e-06
0.000316595
0.000288238
1.22286e-05
1.47681e-08
1.94566e-11
1.4189e-15
1.26164e-19
1.00035e-11
1.23618e-08
9.04252e-06
0.000290887
0.000266948
1.97818e-05
7.36153e-08
1.80949e-10
3.39923e-12
2.50119e-19
3.35465e-11
2.5726e-08
1.65929e-05
0.000269863
0.000249123
2.87484e-05
1.30541e-07
8.59984e-10
8.24881e-12
3.03929e-17
1.64693e-10
6.11183e-08
2.24912e-05
0.000252491
0.000234104
4.27066e-05
3.12664e-07
3.59733e-09
2.21027e-11
1.53722e-15
2.7294e-10
1.66122e-07
2.99523e-05
0.000237788
0.000221198
5.21954e-05
8.92293e-07
5.45149e-09
5.05892e-11
2.41573e-12
6.55451e-10
2.46406e-07
3.45557e-05
0.000225451
0.000210002
5.75559e-05
2.19562e-06
2.23489e-08
7.62804e-11
1.47135e-12
1.26241e-09
4.51761e-07
4.00626e-05
0.000214668
0.000200057
6.21412e-05
4.04856e-06
5.93888e-08
1.59659e-09
3.26124e-11
2.64832e-09
8.231e-07
3.75676e-05
0.000205673
0.000191095
6.87101e-05
6.26678e-06
1.883e-07
3.21761e-09
9.93728e-11
4.08222e-09
1.09133e-06
4.23707e-05
0.00019739
0.000182855
8.04173e-05
9.03687e-06
3.50082e-07
1.03106e-08
2.67182e-10
6.71131e-09
1.37336e-06
4.00792e-05
0.000190716
0.000175176
9.34044e-05
1.31381e-05
7.6292e-07
2.40881e-08
4.12796e-10
8.43947e-09
1.54057e-06
3.99946e-05
0.000184065
0.00016781
0.00010518
1.55866e-05
1.16653e-06
6.26775e-08
4.09897e-09
9.5867e-09
1.99936e-06
4.09751e-05
0.000179129
0.000160668
0.000117741
2.31659e-05
2.02726e-06
1.23747e-07
8.00273e-09
1.23907e-08
2.20779e-06
4.69489e-05
0.0001735
0.000153445
0.000126402
2.6811e-05
3.18997e-06
2.67412e-07
1.42829e-08
1.11742e-08
1.92729e-06
4.75338e-05
0.000169794
0.000146071
0.00014009
3.9932e-05
5.46196e-06
5.64345e-07
5.58459e-08
1.77675e-08
1.62756e-06
4.35532e-05
0.000164442
0.000138216
0.000142727
5.87645e-05
9.39215e-06
1.18926e-06
1.12786e-07
4.84366e-08
1.2631e-06
3.90181e-05
0.000161302
0.00012976
0.000152275
7.43043e-05
1.51536e-05
2.32569e-06
3.62915e-07
4.44458e-08
9.76073e-07
3.21239e-05
0.000154878
0.000120278
0.000159739
9.74323e-05
2.33146e-05
4.36663e-06
6.62336e-07
8.70058e-07
6.7386e-07
2.56069e-05
0.000151655
0.000109898
0.000173949
0.000121578
3.75276e-05
8.19908e-06
1.75545e-06
3.99989e-07
4.7648e-07
1.82119e-05
0.000139429
9.79925e-05
0.000181143
0.000151313
5.909e-05
1.6293e-05
3.69889e-06
8.8849e-07
7.59809e-07
1.17052e-05
0.000136384
0.0037971
9.4874e-05
7.95212e-05
7.94658e-05
7.94638e-05
7.94616e-05
7.94652e-05
7.95218e-05
9.4856e-05
0.00379829
0.00222635
9.70273e-06
2.41115e-06
2.37508e-06
2.3701e-06
2.36592e-06
2.37481e-06
2.41292e-06
9.66334e-06
0.00223044
0.00144731
5.17686e-06
5.14774e-08
4.89313e-08
4.75152e-08
4.78187e-08
4.90644e-08
5.09716e-08
5.0978e-06
0.00145097
0.00102655
5.35302e-06
1.66379e-10
8.17816e-11
1.37807e-10
3.9552e-11
2.27899e-11
2.43324e-11
4.03665e-06
0.00103006
0.000778054
4.7586e-06
3.86091e-11
1.08964e-13
4.54026e-14
2.57723e-15
1.88769e-14
3.82437e-11
4.53472e-06
0.000781087
0.000622349
4.72838e-06
6.36652e-11
4.08006e-15
1.73244e-18
5.73384e-15
2.30656e-15
3.16863e-09
4.46812e-06
0.000624805
0.00051651
6.04654e-06
3.3302e-10
1.90444e-14
1.67899e-20
2.07171e-13
8.54532e-14
2.96982e-08
6.98159e-06
0.000518624
0.000443067
5.39378e-06
9.33303e-10
4.49758e-14
1.4309e-19
7.70687e-12
7.7129e-13
6.03288e-08
9.19019e-06
0.000444674
0.00038903
5.68285e-06
1.57062e-08
2.56941e-13
3.65761e-17
1.52602e-11
3.64723e-12
5.23926e-08
9.20264e-06
0.000390822
0.000347924
7.9896e-06
1.13188e-08
8.44477e-13
2.75921e-15
5.04025e-11
4.84303e-12
6.84657e-08
9.56138e-06
0.000349887
0.000315589
9.43894e-06
2.84639e-08
9.42405e-12
8.88301e-14
9.47702e-11
1.37439e-11
3.23029e-08
9.45666e-06
0.000318067
0.000289576
1.46429e-05
4.90735e-08
9.02488e-11
3.49545e-12
1.8236e-10
3.20126e-11
6.77766e-08
9.81646e-06
0.000292142
0.000268157
2.26888e-05
1.02654e-07
1.225e-10
8.42743e-11
3.7813e-10
2.29379e-11
5.27205e-08
9.13331e-06
0.000271166
0.000250283
3.15969e-05
2.40341e-07
9.15481e-10
2.66514e-10
1.63275e-09
4.81348e-10
7.49562e-08
8.96971e-06
0.000253851
0.000235126
4.34785e-05
6.97389e-07
1.58922e-09
3.76588e-10
2.52698e-09
4.93375e-10
1.23284e-07
1.11118e-05
0.000238927
0.000222101
5.18129e-05
1.12596e-06
8.07761e-09
1.3505e-09
6.57931e-09
1.32466e-09
2.32553e-07
1.65119e-05
0.00022639
0.000210791
5.77115e-05
2.43383e-06
2.63848e-08
2.42435e-09
1.1746e-08
2.05739e-09
3.63454e-07
1.96924e-05
0.000215504
0.000200738
6.261e-05
3.99982e-06
9.55887e-08
5.98023e-09
2.06621e-08
1.25171e-08
4.41635e-07
2.31822e-05
0.000206468
0.00019165
6.80776e-05
6.75145e-06
2.53069e-07
1.48084e-08
3.10473e-08
2.62427e-08
6.98595e-07
2.60982e-05
0.000198103
0.000183313
7.71924e-05
8.40025e-06
4.57071e-07
3.08994e-08
4.28807e-08
5.9389e-08
9.08462e-07
2.81858e-05
0.000191298
0.000175519
9.10453e-05
1.20591e-05
7.59657e-07
5.75938e-08
5.95228e-08
8.10127e-08
1.36724e-06
3.25835e-05
0.000184557
0.000168064
0.000102457
1.48785e-05
1.22679e-06
1.1055e-07
7.85945e-08
1.05749e-07
1.14879e-06
3.22473e-05
0.000179468
0.000160796
0.000113748
2.04181e-05
1.88208e-06
2.05593e-07
1.03222e-07
1.29469e-07
1.22607e-06
3.72274e-05
0.000173687
0.000153482
0.00012419
2.56838e-05
3.17188e-06
3.24134e-07
1.50974e-07
1.56813e-07
1.1334e-06
3.50405e-05
0.000169888
0.000145984
0.000137233
3.54165e-05
4.95534e-06
6.27233e-07
2.00835e-07
2.00442e-07
1.54097e-06
3.7441e-05
0.000164493
0.000138113
0.000142306
5.58772e-05
8.00213e-06
1.10189e-06
3.32104e-07
3.07438e-07
1.31452e-06
3.59889e-05
0.000161314
0.000129599
0.000149518
6.90141e-05
1.48679e-05
2.35539e-06
4.8408e-07
3.09568e-07
1.14794e-06
2.99443e-05
0.000155093
0.000120301
0.000159286
9.5864e-05
2.24159e-05
4.51465e-06
9.746e-07
7.74674e-07
9.81838e-07
2.47971e-05
0.000151188
0.000110036
0.000169455
0.000115372
3.87287e-05
8.95871e-06
1.90051e-06
5.50481e-07
1.05725e-06
1.6779e-05
0.000140502
9.9216e-05
0.000183059
0.000151412
5.3632e-05
1.77664e-05
4.51671e-06
1.79752e-06
1.24782e-06
1.21939e-05
0.000133965
0.00379829
9.49715e-05
7.95772e-05
7.95192e-05
7.95165e-05
7.95206e-05
7.95204e-05
7.95728e-05
9.49539e-05
0.00379946
0.00223176
9.83602e-06
2.44003e-06
2.41688e-06
2.41032e-06
2.39801e-06
2.41002e-06
2.44167e-06
9.7954e-06
0.00223582
0.00145381
5.35293e-06
5.90756e-08
3.87302e-08
3.85179e-08
5.81112e-08
5.16718e-08
5.6202e-08
5.31836e-06
0.00145752
0.00103227
5.2274e-06
1.66619e-10
5.32899e-11
6.74184e-11
2.75678e-10
2.2749e-10
2.18546e-10
5.22795e-06
0.00103637
0.000782909
4.79535e-06
1.41165e-10
3.02157e-11
2.11627e-11
8.17927e-11
1.04407e-10
1.95285e-10
4.83307e-06
0.000786109
0.000626177
4.60257e-06
2.55588e-09
2.3509e-11
8.95914e-11
2.17149e-10
3.81383e-10
1.07965e-09
4.64199e-06
0.000628684
0.00051976
6.00726e-06
3.38307e-09
1.60438e-10
1.36947e-09
2.037e-09
9.55998e-10
2.48113e-09
5.94706e-06
0.00052183
0.000445387
5.90868e-06
1.11228e-08
9.24782e-10
9.20734e-09
8.40659e-09
1.5977e-09
4.10977e-09
6.01938e-06
0.000447357
0.000391248
4.52522e-06
2.18758e-08
1.06888e-09
3.3438e-08
9.07833e-09
4.95321e-09
1.078e-08
2.94385e-06
0.000393168
0.000349913
4.757e-06
4.56589e-08
3.98538e-09
4.31664e-08
2.53445e-08
6.28564e-09
3.78811e-08
4.76592e-06
0.000351548
0.00031721
8.30548e-06
1.50372e-07
1.53025e-08
8.59022e-08
4.36918e-08
1.62591e-08
6.88548e-08
7.78938e-06
0.00031893
0.00029108
1.43691e-05
2.51222e-07
4.50497e-08
1.45888e-07
5.70152e-08
5.60118e-08
1.73099e-07
1.83524e-05
0.000292639
0.000269497
1.96188e-05
3.27352e-07
3.50048e-08
3.59079e-07
8.47775e-08
7.62748e-08
1.77384e-07
2.86131e-05
0.000271206
0.000251483
2.69366e-05
4.09207e-07
2.68891e-07
5.06823e-07
1.91396e-07
1.71684e-07
3.42942e-07
3.65362e-05
0.000253369
0.000236223
3.62778e-05
8.02677e-07
2.08828e-07
6.78187e-07
3.39107e-07
1.79564e-07
6.62298e-07
2.81459e-05
0.000238409
0.000223229
4.49553e-05
1.22325e-06
5.52478e-07
9.00164e-07
5.79122e-07
3.1071e-07
7.66179e-07
2.90365e-05
0.000225934
0.000211832
5.40671e-05
2.97091e-06
6.45587e-07
1.2737e-06
1.17785e-06
3.64586e-07
8.96125e-07
3.13277e-05
0.000215118
0.000201751
6.18503e-05
4.75552e-06
9.57753e-07
1.67183e-06
1.80599e-06
4.87677e-07
1.51413e-06
3.40296e-05
0.000206031
0.000192657
6.86069e-05
7.61741e-06
2.3567e-06
2.52416e-06
2.83888e-06
7.87401e-07
2.8454e-06
3.74789e-05
0.000197785
0.000184244
7.9274e-05
9.32327e-06
3.79784e-06
3.20471e-06
3.98077e-06
1.61807e-06
4.50371e-06
4.04239e-05
0.000190989
0.000176374
9.07421e-05
1.32531e-05
5.66642e-06
3.98211e-06
4.79519e-06
2.75449e-06
6.529e-06
4.93735e-05
0.000184416
0.00016878
0.000102096
1.57198e-05
6.23911e-06
4.61306e-06
5.51513e-06
4.81985e-06
7.69268e-06
5.39701e-05
0.000179309
0.000161387
0.000114972
2.29301e-05
8.07286e-06
5.32545e-06
6.05885e-06
6.43669e-06
8.28148e-06
5.27787e-05
0.000173731
0.000153814
0.000122602
2.61047e-05
9.08484e-06
6.23048e-06
6.64481e-06
7.27108e-06
8.5123e-06
5.13168e-05
0.000169695
0.000146015
0.000137088
3.84567e-05
1.22542e-05
7.7618e-06
7.69558e-06
7.87278e-06
9.03872e-06
4.65906e-05
0.000164499
0.000137541
0.000141875
5.17291e-05
1.53161e-05
9.16471e-06
8.5809e-06
8.65821e-06
9.53218e-06
4.31538e-05
0.000160908
0.000128232
0.00015238
7.8141e-05
2.23481e-05
1.1746e-05
9.54672e-06
9.51591e-06
1.05256e-05
3.73986e-05
0.000155037
0.000117459
0.000164196
9.74256e-05
3.18851e-05
1.50966e-05
1.1133e-05
1.02407e-05
1.18299e-05
3.42005e-05
0.000151242
0.000105946
0.0001808
0.000140528
4.92248e-05
2.2751e-05
1.42408e-05
1.29663e-05
1.27039e-05
2.7721e-05
0.0001417
9.75337e-05
0.000203324
0.000177998
8.78781e-05
3.9658e-05
2.14892e-05
1.55068e-05
1.71812e-05
2.84048e-05
0.000135617
0.00380268
0.000111404
9.49574e-05
9.48598e-05
9.4869e-05
9.48688e-05
9.48598e-05
9.49575e-05
0.000111388
0.00380378
0.00224336
2.45642e-05
9.80012e-06
9.66832e-06
9.67002e-06
9.67155e-06
9.66899e-06
9.80258e-06
2.4485e-05
0.00224709
0.0014639
1.58403e-05
5.17566e-06
5.15636e-06
5.24223e-06
5.21016e-06
5.16778e-06
5.31541e-06
1.5358e-05
0.00146838
0.0010396
1.65074e-05
5.16149e-06
5.28782e-06
4.15546e-06
5.3389e-06
5.30802e-06
5.20641e-06
2.08461e-05
0.00104514
0.000788687
2.60126e-05
4.77798e-06
4.69203e-06
4.66799e-06
4.74019e-06
4.72491e-06
4.83103e-06
2.58981e-05
0.000793101
0.000628562
2.7651e-05
4.67304e-06
4.72652e-06
4.80328e-06
4.60641e-06
4.75705e-06
4.71894e-06
2.91659e-05
0.000632857