/*--------------------------------*- C++ -*----------------------------------*\
| =========                 |                                                 |
| \\      /  F ield         | OpenFOAM: The Open Source CFD Toolbox           |
|  \\    /   O peration     | Version:  4.1                                   |
|   \\  /    A nd           | Web:      www.OpenFOAM.org                      |
|    \\/     M anipulation  |                                                 |
\*---------------------------------------------------------------------------*/
FoamFile
{
    version     2.0;
    format      ascii;
    class       volScalarField;
    location    "400";
    object      p;
}
// * * * * * * * * * * * * * * * * * * * * * * * * * * * * * * * * * * * * * //

dimensions      [0 2 -2 0 0 0 0];

internalField   nonuniform List<scalar> 
12000
(
0.0767032
0.0769829
0.0766477
0.076527
0.0764893
0.0764877
0.0765225
0.0766404
0.0769731
0.07669
0.0761366
0.0761212
0.0760598
0.0760623
0.0760488
0.0760472
0.0760575
0.0760521
0.0761108
0.0761231
0.0760174
0.0757808
0.0758444
0.0758928
0.0758946
0.0758927
0.0758873
0.0758355
0.0757687
0.076002
0.0759877
0.0757238
0.0758093
0.0758373
0.0758373
0.075835
0.0758308
0.0757988
0.0757096
0.0759697
0.0758905
0.0756714
0.0757571
0.0757603
0.0757577
0.0757549
0.0757521
0.0757443
0.0756544
0.075869
0.0757672
0.075593
0.0756746
0.0756646
0.0756642
0.0756607
0.0756542
0.0756585
0.0755715
0.0757404
0.0756649
0.075524
0.075598
0.0755807
0.0755832
0.0755788
0.0755674
0.0755775
0.0754965
0.0756309
0.0755894
0.0754741
0.0755389
0.0755158
0.0755193
0.075514
0.0754989
0.0755127
0.075439
0.075546
0.0755304
0.0754354
0.0754909
0.075463
0.0754661
0.0754592
0.0754412
0.0754569
0.0753904
0.0754746
0.0754816
0.0754021
0.0754486
0.0754169
0.0754186
0.0754093
0.0753881
0.0754036
0.0753429
0.0754091
0.0754412
0.0753718
0.0754108
0.0753759
0.075375
0.0753628
0.0753379
0.0753512
0.0752953
0.0753476
0.0754102
0.0753482
0.0753782
0.0753401
0.0753352
0.0753193
0.0752905
0.0753
0.075248
0.0752894
0.0753888
0.0753317
0.0753512
0.0753093
0.0752987
0.0752781
0.075245
0.0752492
0.0751988
0.0752318
0.0753757
0.0753201
0.0753301
0.0752833
0.0752654
0.0752383
0.0751995
0.075197
0.0751466
0.0751722
0.075372
0.0753154
0.0753151
0.0752618
0.0752347
0.075199
0.0751527
0.0751418
0.07509
0.0751085
0.0753795
0.0753194
0.0753071
0.0752449
0.075206
0.0751593
0.0751032
0.075082
0.0750263
0.075038
0.0754005
0.0753346
0.0753076
0.0752333
0.0751792
0.0751186
0.0750496
0.0750153
0.0749529
0.0749573
0.0754375
0.0753638
0.0753182
0.0752276
0.0751543
0.0750756
0.0749898
0.0749389
0.0748665
0.0748627
0.0754932
0.0754098
0.0753407
0.0752287
0.075131
0.075029
0.0749213
0.0748493
0.0747626
0.0747491
0.0755696
0.075476
0.0753768
0.0752373
0.0751091
0.0749771
0.0748406
0.0747416
0.0746351
0.0746097
0.0756677
0.0755651
0.0754287
0.0752545
0.0750883
0.0749183
0.074744
0.0746093
0.0744753
0.0744347
0.0757858
0.0756782
0.0754983
0.0752815
0.0750688
0.0748503
0.0746264
0.0744437
0.0742715
0.07421
0.0759172
0.0758124
0.0755869
0.07532
0.0750511
0.0747713
0.0744816
0.0742333
0.0740061
0.0739146
0.0760488
0.0759575
0.0756947
0.0753731
0.0750371
0.0746797
0.0743022
0.0739617
0.0736529
0.0735156
0.0761616
0.0760946
0.07582
0.0754462
0.075031
0.0745751
0.0740794
0.0736062
0.0731704
0.0729571
0.0762372
0.0762011
0.0759603
0.0755486
0.0750407
0.0744586
0.0738019
0.0731331
0.0724896
0.072139
0.0762752
0.0762697
0.0761107
0.0756861
0.0750748
0.0743336
0.0734576
0.0724953
0.071494
0.070849
0.076304
0.0763456
0.0762725
0.0758492
0.0751334
0.0741992
0.0730232
0.0716104
0.0699798
0.0686222
0.0763107
0.0763837
0.0763428
0.0759468
0.0751718
0.0740454
0.0724933
0.0703832
0.0676582
0.0640183
0.0762647
0.076307
0.0762043
0.0758048
0.075028
0.0737323
0.0717272
0.0684659
0.0641241
0.0533304
0.0769842
0.0770206
0.0766903
0.0765717
0.0765317
0.0765301
0.0765672
0.0766833
0.0770113
0.0769703
0.0761224
0.0760758
0.0760405
0.0760472
0.076032
0.0760304
0.0760425
0.0760331
0.0760658
0.0761087
0.0757822
0.0755663
0.0756513
0.0757065
0.0757073
0.0757054
0.0757011
0.075643
0.0755551
0.0757665
0.0757258
0.0754684
0.0755697
0.0755976
0.0755957
0.0755935
0.0755911
0.0755595
0.0754546
0.0757074
0.075674
0.0754502
0.0755543
0.0755511
0.0755469
0.0755442
0.075543
0.0755417
0.075433
0.0756519
0.0755963
0.0754114
0.0755138
0.075495
0.0754955
0.0754922
0.0754848
0.0754979
0.0753899
0.0755685
0.0755281
0.0753735
0.0754668
0.075439
0.0754448
0.0754406
0.0754259
0.0754464
0.0753461
0.0754929
0.0754793
0.0753498
0.0754308
0.0753959
0.0754041
0.0753986
0.0753787
0.0754041
0.0753143
0.0754345
0.0754421
0.0753334
0.0754023
0.0753628
0.0753709
0.0753637
0.0753402
0.075367
0.0752875
0.0753848
0.0754106
0.075318
0.0753754
0.0753335
0.0753402
0.075331
0.0753042
0.0753296
0.0752585
0.0753359
0.0753828
0.0753035
0.0753502
0.0753064
0.0753103
0.0752982
0.0752681
0.07529
0.0752255
0.075287
0.0753625
0.0752908
0.0753269
0.0752816
0.0752812
0.0752655
0.0752318
0.0752484
0.0751892
0.0752386
0.0753502
0.0752819
0.075307
0.0752597
0.0752534
0.0752329
0.075195
0.0752057
0.0751498
0.0751879
0.0753435
0.075278
0.0752923
0.0752411
0.0752269
0.0752001
0.075157
0.0751603
0.0751052
0.0751338
0.0753445
0.0752797
0.0752827
0.0752257
0.0752014
0.0751665
0.0751164
0.0751104
0.0750538
0.0750749
0.0753556
0.075289
0.0752792
0.0752137
0.0751768
0.0751313
0.075072
0.0750547
0.074994
0.0750079
0.0753789
0.0753079
0.0752829
0.0752056
0.0751529
0.0750935
0.075022
0.074991
0.0749235
0.0749295
0.0754167
0.0753389
0.0752949
0.0752019
0.0751295
0.0750522
0.0749644
0.0749164
0.0748387
0.0748358
0.0754714
0.0753846
0.075317
0.0752031
0.0751061
0.0750057
0.0748965
0.0748268
0.0747348
0.0747217
0.0755449
0.0754477
0.0753507
0.07521
0.0750822
0.0749522
0.0748148
0.0747171
0.0746054
0.0745798
0.0756382
0.0755307
0.0753975
0.0752231
0.0750573
0.0748893
0.0747147
0.0745805
0.0744413
0.0743999
0.07575
0.0756347
0.075459
0.0752431
0.0750306
0.0748143
0.0745905
0.0744076
0.0742296
0.0741669
0.0758758
0.0757586
0.0755363
0.075271
0.0750021
0.0747242
0.0744349
0.0741854
0.0739513
0.073858
0.0760057
0.0758964
0.0756304
0.075309
0.0749725
0.0746162
0.0742388
0.0738954
0.0735775
0.0734374
0.0761244
0.076036
0.075741
0.0753611
0.0749446
0.0744886
0.0739915
0.0735121
0.0730622
0.072844
0.0762145
0.0761592
0.0758675
0.0754341
0.074924
0.0743411
0.0736796
0.0729981
0.0723294
0.0719684
0.0762672
0.0762479
0.0760031
0.0755333
0.0749186
0.074177
0.0732899
0.072302
0.07125
0.0705779
0.0762892
0.0763072
0.0761351
0.0756502
0.0749287
0.073995
0.0727992
0.0713405
0.0696043
0.0681688
0.0762707
0.0763071
0.076184
0.0757175
0.074929
0.0737944
0.0722035
0.0700109
0.0670785
0.0632127
0.0762327
0.0762034
0.0760054
0.0755517
0.0747621
0.0734603
0.0714216
0.0680087
0.0634043
0.0519035
0.0766501
0.0766916
0.0763846
0.0762616
0.0762201
0.0762185
0.0762571
0.0763776
0.0766823
0.0766357
0.0760621
0.0760417
0.0760128
0.0760147
0.0759995
0.0759978
0.07601
0.0760054
0.0760318
0.0760485
0.0758471
0.0756527
0.0757382
0.0757921
0.0757935
0.0757916
0.0757867
0.0757299
0.0756415
0.0758319
0.0758129
0.0755714
0.0756713
0.075698
0.0756959
0.0756937
0.0756916
0.0756612
0.0755577
0.0757949
0.0757617
0.0755565
0.0756619
0.0756561
0.0756513
0.0756486
0.075648
0.0756493
0.0755395
0.0757399
0.0756805
0.0755165
0.0756242
0.075603
0.075604
0.0756006
0.0755927
0.0756083
0.0754952
0.0756533
0.0756052
0.0754703
0.0755705
0.0755407
0.0755485
0.0755442
0.0755274
0.0755499
0.0754431
0.0755709
0.0755481
0.0754353
0.0755227
0.0754857
0.0754967
0.0754911
0.0754683
0.0754957
0.0753997
0.0755047
0.0755027
0.0754081
0.0754828
0.075441
0.0754522
0.075445
0.0754183
0.0754475
0.0753615
0.0754473
0.0754635
0.0753831
0.075446
0.0754018
0.0754118
0.0754026
0.0753725
0.0754003
0.0753228
0.0753915
0.07543
0.0753604
0.0754113
0.0753658
0.0753731
0.0753612
0.0753278
0.0753522
0.0752816
0.0753362
0.0754039
0.0753398
0.0753798
0.0753331
0.0753361
0.0753206
0.0752836
0.0753028
0.0752376
0.0752817
0.0753851
0.0753233
0.0753528
0.0753042
0.0753012
0.075281
0.0752399
0.0752527
0.0751915
0.0752264
0.0753734
0.0753134
0.0753317
0.0752794
0.0752683
0.075242
0.075196
0.0752011
0.0751416
0.0751678
0.0753702
0.0753101
0.0753165
0.0752584
0.075237
0.0752027
0.0751503
0.0751459
0.0750857
0.0751041
0.0753773
0.0753147
0.0753077
0.0752413
0.0752071
0.0751623
0.0751011
0.0750853
0.0750222
0.0750328
0.0753967
0.0753289
0.0753061
0.0752281
0.0751782
0.0751196
0.0750466
0.075017
0.0749481
0.0749506
0.0754302
0.0753545
0.0753127
0.0752193
0.0751496
0.0750733
0.0749846
0.0749378
0.0748597
0.0748534
0.0754797
0.075394
0.0753289
0.075215
0.0751209
0.0750217
0.074912
0.0748437
0.0747521
0.0747355
0.0755467
0.0754495
0.0753557
0.0752155
0.0750911
0.0749625
0.0748251
0.0747292
0.0746182
0.0745893
0.0756317
0.0755228
0.0753943
0.0752209
0.075059
0.074893
0.0747189
0.074587
0.0744487
0.074404
0.0757332
0.0756148
0.0754454
0.0752314
0.0750235
0.0748098
0.0745871
0.074407
0.0742298
0.0741638
0.0758467
0.0757241
0.0755094
0.075247
0.0749836
0.0747092
0.0744214
0.0741753
0.0739416
0.0738446
0.0759644
0.0758459
0.0755863
0.0752685
0.0749386
0.0745871
0.0742117
0.0738723
0.0735533
0.0734088
0.0760753
0.075971
0.0756747
0.0752977
0.0748896
0.0744405
0.073946
0.0734704
0.0730168
0.072792
0.0761675
0.0760871
0.075773
0.0753384
0.0748403
0.0742681
0.0736101
0.0729307
0.072252
0.0718792
0.0762317
0.0761815
0.0758782
0.0753965
0.0748001
0.0740761
0.0731939
0.0722034
0.0711257
0.0704289
0.0762675
0.0762467
0.0759817
0.0754754
0.0747832
0.0738793
0.0726911
0.0712197
0.0694188
0.0679235
0.0762797
0.0762768
0.0760621
0.0755793
0.0748311
0.0737408
0.0721626
0.069944
0.0668661
0.0628281
0.0762857
0.0762641
0.0760826
0.0756954
0.0749867
0.0737401
0.0717138
0.0682534
0.0633873
0.0513758
0.0765308
0.0765742
0.0762629
0.076139
0.0760972
0.0760957
0.0761346
0.0762559
0.076565
0.0765163
0.0760661
0.0760498
0.076016
0.0760184
0.0760032
0.0760016
0.0760137
0.0760086
0.0760398
0.0760524
0.0758971
0.0757093
0.0757936
0.0758498
0.0758513
0.0758495
0.0758445
0.0757852
0.0756981
0.0758821
0.0758428
0.0756011
0.0756998
0.0757286
0.0757262
0.075724
0.0757222
0.0756898
0.0755876
0.0758249
0.0757672
0.0755554
0.0756582
0.0756526
0.075647
0.0756443
0.0756445
0.0756458
0.0755387
0.0757453
0.0756732
0.0755006
0.0756057
0.0755834
0.0755838
0.0755804
0.0755731
0.07559
0.0754794
0.0756461
0.0755911
0.0754463
0.0755444
0.0755131
0.0755207
0.0755164
0.0754997
0.0755239
0.075419
0.0755572
0.0755293
0.0754053
0.0754906
0.0754516
0.0754626
0.0754571
0.0754343
0.0754639
0.07537
0.0754859
0.0754812
0.075375
0.0754471
0.0754028
0.0754141
0.075407
0.0753803
0.0754126
0.0753292
0.0754246
0.0754409
0.0753496
0.0754099
0.0753628
0.0753728
0.0753638
0.0753336
0.075365
0.0752901
0.0753672
0.0754075
0.0753274
0.0753764
0.0753281
0.0753353
0.0753236
0.0752901
0.075318
0.0752501
0.0753117
0.0753818
0.0753091
0.0753469
0.0752976
0.0753004
0.0752851
0.0752481
0.0752708
0.0752083
0.0752574
0.0753637
0.0752955
0.0753225
0.0752714
0.075268
0.075248
0.0752072
0.0752232
0.0751642
0.075203
0.0753532
0.0752878
0.0753037
0.0752494
0.0752378
0.0752117
0.075166
0.0751739
0.0751161
0.0751456
0.0753515
0.0752865
0.0752906
0.0752312
0.0752093
0.0751752
0.075123
0.0751211
0.0750623
0.075083
0.0753599
0.0752928
0.0752835
0.0752165
0.0751817
0.0751371
0.0750762
0.0750627
0.0750005
0.0750127
0.0753801
0.0753082
0.075283
0.0752053
0.0751547
0.0750965
0.0750238
0.0749961
0.0749279
0.0749314
0.0754136
0.0753344
0.0752903
0.0751976
0.0751275
0.0750516
0.0749633
0.0749182
0.0748405
0.0748347
0.0754621
0.0753735
0.0753061
0.0751936
0.0750993
0.0750008
0.0748916
0.0748247
0.0747332
0.0747168
0.0755269
0.0754274
0.0753315
0.0751933
0.0750691
0.0749414
0.0748047
0.07471
0.0745988
0.0745697
0.0756082
0.0754975
0.0753671
0.0751965
0.0750353
0.0748706
0.0746973
0.0745665
0.0744276
0.0743822
0.0757046
0.0755847
0.0754136
0.0752028
0.0749965
0.0747844
0.0745628
0.0743837
0.0742055
0.0741382
0.0758125
0.0756877
0.0754712
0.0752122
0.0749511
0.0746789
0.0743925
0.0741472
0.0739118
0.073813
0.0759254
0.075803
0.07554
0.075225
0.0748984
0.0745498
0.0741762
0.0738372
0.0735156
0.0733681
0.076035
0.0759235
0.0756196
0.0752437
0.07484
0.0743948
0.0739024
0.0734266
0.0729682
0.0727386
0.0761323
0.0760403
0.0757102
0.0752736
0.0747818
0.0742155
0.0735599
0.0728787
0.0721908
0.0718095
0.0762103
0.0761444
0.0758132
0.0753267
0.0747408
0.0740263
0.0731472
0.072152
0.0710563
0.0703425
0.0762687
0.07623
0.0759294
0.0754216
0.0747488
0.0738606
0.0726767
0.0711962
0.0693612
0.0678313
0.0763131
0.0762962
0.0760626
0.075598
0.0748832
0.0738164
0.0722452
0.0700154
0.0668853
0.0627748
0.0763474
0.0763376
0.0762104
0.0758927
0.0752303
0.074005
0.0719831
0.0685126
0.063588
0.0514707
0.0764945
0.0765357
0.0762228
0.0760986
0.0760567
0.0760552
0.0760942
0.0762158
0.0765264
0.07648
0.0760541
0.0760361
0.0760024
0.0760047
0.0759895
0.0759879
0.076
0.0759949
0.0760261
0.0760405
0.0759007
0.0757119
0.0757967
0.0758531
0.0758545
0.0758527
0.0758477
0.0757884
0.0757006
0.0758858
0.0758448
0.0756014
0.0756998
0.0757283
0.0757256
0.0757234
0.0757219
0.0756898
0.0755878
0.0758271
0.0757671
0.075554
0.0756562
0.0756497
0.0756437
0.075641
0.0756417
0.0756438
0.0755372
0.0757454
0.0756761
0.0755046
0.0756103
0.0755873
0.0755873
0.0755839
0.075577
0.0755945
0.0754834
0.075649
0.0755981
0.0754567
0.0755568
0.0755253
0.075533
0.0755287
0.075512
0.0755363
0.0754294
0.0755641
0.075539
0.0754194
0.0755073
0.0754686
0.0754801
0.0754746
0.0754514
0.0754808
0.0753842
0.0754953
0.0754923
0.0753908
0.0754659
0.0754218
0.0754339
0.0754269
0.0753995
0.0754316
0.0753452
0.0754355
0.0754529
0.0753663
0.0754298
0.0753829
0.0753938
0.0753849
0.0753538
0.0753852
0.0753071
0.0753791
0.0754195
0.0753444
0.075397
0.0753486
0.0753569
0.0753452
0.0753107
0.0753386
0.0752672
0.0753242
0.0753933
0.0753258
0.0753673
0.0753177
0.0753216
0.0753064
0.0752683
0.0752911
0.0752249
0.0752703
0.0753749
0.0753114
0.0753417
0.0752903
0.0752881
0.0752683
0.0752262
0.0752425
0.0751797
0.0752156
0.0753638
0.0753023
0.0753214
0.0752668
0.0752564
0.0752305
0.0751835
0.0751919
0.0751305
0.0751575
0.0753611
0.0752994
0.0753065
0.0752467
0.0752261
0.0751921
0.0751388
0.0751375
0.0750755
0.075094
0.0753684
0.075304
0.0752974
0.0752299
0.0751966
0.0751522
0.0750901
0.0750773
0.0750124
0.0750228
0.0753871
0.0753174
0.0752948
0.0752165
0.0751674
0.0751094
0.0750358
0.0750088
0.0749384
0.0749405
0.0754189
0.0753414
0.0752996
0.0752065
0.0751379
0.0750624
0.0749732
0.0749289
0.0748495
0.0748427
0.0754653
0.0753779
0.0753129
0.0752
0.0751072
0.0750092
0.0748993
0.0748333
0.0747405
0.0747234
0.0755275
0.0754288
0.0753352
0.0751968
0.0750741
0.0749472
0.07481
0.0747163
0.0746042
0.0745746
0.0756058
0.0754955
0.0753673
0.0751967
0.0750372
0.0748734
0.0746999
0.0745701
0.0744306
0.074385
0.0756989
0.0755787
0.0754098
0.0751993
0.0749946
0.0747837
0.074562
0.0743841
0.0742055
0.0741381
0.0758036
0.0756779
0.0754629
0.0752043
0.074945
0.0746741
0.0743879
0.0741438
0.0739082
0.0738093
0.0759143
0.07579
0.075527
0.0752124
0.0748875
0.0745404
0.0741672
0.0738293
0.0735074
0.0733597
0.0760241
0.0759094
0.0756024
0.0752261
0.0748243
0.074381
0.0738891
0.073414
0.0729549
0.0727246
0.0761248
0.0760283
0.0756908
0.0752524
0.074763
0.0741992
0.0735443
0.072863
0.072173
0.0717899
0.0762098
0.0761388
0.0757955
0.0753061
0.0747242
0.0740136
0.0731355
0.072139
0.0710385
0.0703203
0.0762774
0.0762341
0.0759207
0.0754117
0.0747464
0.0738648
0.0726828
0.0711997
0.0693553
0.067816
0.0763302
0.0763102
0.0760739
0.0756181
0.0749178
0.0738624
0.0722966
0.0700651
0.0669224
0.062787
0.0763707
0.0763622
0.0762609
0.075975
0.0753374
0.0741296
0.0721195
0.068653
0.0637166
0.0515439
0.0764945
0.0765357
0.0762228
0.0760986
0.0760567
0.0760552
0.0760942
0.0762158
0.0765264
0.0764801
0.0760541
0.0760361
0.0760024
0.0760047
0.0759895
0.0759878
0.076
0.0759949
0.0760261
0.0760405
0.0759007
0.0757119
0.0757967
0.0758531
0.0758545
0.0758527
0.0758477
0.0757883
0.0757005
0.0758859
0.0758448
0.0756014
0.0756998
0.0757283
0.0757256
0.0757234
0.0757219
0.0756898
0.0755878
0.0758272
0.0757672
0.075554
0.0756561
0.0756497
0.0756437
0.075641
0.0756417
0.0756438
0.0755373
0.0757454
0.0756762
0.0755046
0.0756102
0.0755872
0.0755873
0.0755839
0.075577
0.0755945
0.0754834
0.075649
0.0755984
0.0754566
0.0755567
0.0755252
0.075533
0.0755287
0.075512
0.0755364
0.0754295
0.0755641
0.0755393
0.0754193
0.0755072
0.0754685
0.07548
0.0754746
0.0754514
0.0754809
0.0753842
0.0754953
0.0754924
0.0753908
0.0754659
0.0754218
0.0754338
0.0754269
0.0753995
0.0754316
0.0753452
0.0754354
0.0754529
0.0753662
0.0754299
0.0753829
0.0753938
0.0753849
0.0753538
0.0753852
0.075307
0.075379
0.0754196
0.0753441
0.0753973
0.0753486
0.0753569
0.0753452
0.0753106
0.0753385
0.0752671
0.0753242
0.0753933
0.0753256
0.0753673
0.0753178
0.0753216
0.0753064
0.0752683
0.075291
0.0752248
0.0752702
0.0753747
0.0753113
0.0753417
0.0752905
0.0752881
0.0752683
0.0752261
0.0752425
0.0751796
0.0752154
0.0753635
0.0753022
0.0753214
0.0752669
0.0752564
0.0752305
0.0751834
0.0751918
0.0751304
0.0751573
0.0753608
0.0752994
0.0753065
0.0752468
0.0752261
0.0751921
0.0751386
0.0751374
0.0750754
0.0750939
0.0753681
0.0753039
0.0752973
0.07523
0.0751965
0.0751522
0.07509
0.0750771
0.0750124
0.0750228
0.075387
0.0753173
0.0752947
0.0752165
0.0751673
0.0751094
0.0750356
0.0750086
0.0749383
0.0749405
0.0754188
0.0753413
0.0752996
0.0752065
0.0751377
0.0750623
0.074973
0.0749287
0.0748494
0.0748426
0.0754653
0.0753779
0.0753128
0.0752
0.075107
0.075009
0.0748991
0.074833
0.0747403
0.0747233
0.0755275
0.0754287
0.0753351
0.0751968
0.0750739
0.074947
0.0748097
0.074716
0.0746039
0.0745744
0.0756059
0.0754954
0.0753673
0.0751967
0.0750369
0.0748731
0.0746995
0.0745697
0.0744302
0.0743846
0.075699
0.0755788
0.0754097
0.0751992
0.0749943
0.0747833
0.0745616
0.0743835
0.0742049
0.0741376
0.0758037
0.0756779
0.0754628
0.0752042
0.0749446
0.0746736
0.0743873
0.074143
0.0739073
0.0738085
0.0759144
0.0757901
0.0755269
0.0752121
0.074887
0.0745398
0.0741664
0.0738283
0.0735061
0.0733585
0.0760241
0.0759094
0.0756022
0.0752257
0.0748236
0.0743801
0.0738879
0.0734125
0.0729531
0.0727228
0.0761248
0.0760283
0.0756905
0.0752518
0.0747621
0.074198
0.0735426
0.0728609
0.0721703
0.0717871
0.0762099
0.0761388
0.0757951
0.0753053
0.074723
0.0740119
0.0731331
0.0721358
0.0710344
0.0703157
0.0762774
0.076234
0.0759201
0.0754106
0.0747448
0.0738625
0.0726795
0.0711951
0.0693487
0.0678081
0.0763301
0.0763099
0.076073
0.0756164
0.0749154
0.073859
0.0722916
0.0700582
0.0669123
0.0627728
0.0763705
0.0763617
0.0762597
0.0759727
0.075334
0.0741249
0.0721127
0.068643
0.063702
0.0515169
0.0765308
0.0765742
0.0762629
0.076139
0.0760972
0.0760957
0.0761346
0.0762559
0.076565
0.0765164
0.0760661
0.0760498
0.076016
0.0760184
0.0760032
0.0760015
0.0760136
0.0760086
0.0760398
0.0760525
0.0758971
0.0757093
0.0757936
0.0758498
0.0758513
0.0758495
0.0758444
0.0757852
0.075698
0.0758823
0.0758427
0.0756011
0.0756998
0.0757286
0.0757262
0.075724
0.0757222
0.0756898
0.0755875
0.0758251
0.0757671
0.0755555
0.0756582
0.0756526
0.075647
0.0756443
0.0756445
0.0756458
0.0755387
0.0757454
0.0756732
0.0755006
0.0756057
0.0755833
0.0755838
0.0755804
0.0755731
0.07559
0.0754794
0.0756461
0.0755916
0.0754462
0.0755442
0.0755129
0.0755207
0.0755164
0.0754998
0.075524
0.0754191
0.0755572
0.07553
0.0754053
0.0754903
0.0754515
0.0754626
0.0754572
0.0754344
0.075464
0.0753701
0.0754858
0.0754815
0.075375
0.075447
0.0754027
0.075414
0.0754071
0.0753803
0.0754126
0.0753291
0.0754245
0.0754411
0.0753495
0.0754099
0.0753628
0.0753727
0.0753637
0.0753336
0.0753649
0.0752899
0.0753672
0.0754075
0.0753272
0.0753765
0.0753281
0.0753352
0.0753236
0.07529
0.0753179
0.0752497
0.0753118
0.0753814
0.0753088
0.0753471
0.0752976
0.0753003
0.0752851
0.0752481
0.0752708
0.075208
0.0752574
0.075363
0.0752955
0.0753228
0.0752715
0.0752678
0.0752479
0.075207
0.0752231
0.0751638
0.0752025
0.0753526
0.0752878
0.075304
0.0752495
0.0752377
0.0752116
0.0751658
0.0751738
0.0751157
0.0751449
0.0753509
0.0752865
0.0752908
0.0752312
0.0752091
0.075175
0.0751227
0.0751209
0.0750619
0.0750823
0.0753595
0.0752927
0.0752834
0.0752164
0.0751816
0.0751369
0.0750759
0.0750623
0.075
0.0750122
0.0753798
0.075308
0.0752829
0.075205
0.0751544
0.0750962
0.0750234
0.0749956
0.0749273
0.074931
0.0754135
0.0753342
0.07529
0.0751972
0.0751271
0.0750512
0.0749628
0.0749176
0.0748399
0.0748341
0.0754622
0.0753733
0.0753058
0.0751932
0.0750988
0.0750002
0.0748909
0.074824
0.0747324
0.074716
0.0755271
0.0754272
0.0753311
0.0751928
0.0750684
0.0749407
0.0748038
0.0747091
0.0745978
0.0745686
0.0756085
0.0754974
0.0753667
0.0751958
0.0750344
0.0748696
0.0746962
0.0745653
0.0744262
0.0743808
0.0757049
0.0755846
0.0754132
0.075202
0.0749954
0.0747831
0.0745612
0.074382
0.0742035
0.0741362
0.0758128
0.0756877
0.0754707
0.0752111
0.0749497
0.0746772
0.0743904
0.0741448
0.0739091
0.0738102
0.0759257
0.0758031
0.0755393
0.0752237
0.0748966
0.0745476
0.0741734
0.0738339
0.0735117
0.0733641
0.0760353
0.0759237
0.0756188
0.075242
0.0748377
0.0743919
0.0738985
0.0734219
0.0729627
0.0727326
0.0761325
0.0760406
0.0757093
0.0752715
0.0747789
0.0742116
0.0735547
0.0728721
0.0721827
0.0718004
0.0762105
0.0761446
0.0758122
0.0753242
0.0747371
0.0740211
0.07314
0.0721424
0.0710439
0.0703279
0.0762688
0.07623
0.0759282
0.0754185
0.074744
0.0738536
0.0726665
0.0711821
0.0693413
0.0678062
0.0763131
0.0762958
0.0760609
0.0755937
0.0748762
0.0738059
0.0722301
0.0699941
0.0668537
0.062726
0.0763473
0.0763366
0.0762077
0.0758867
0.0752202
0.0739899
0.0719615
0.0684811
0.0635415
0.0513741
0.0766501
0.0766916
0.0763847
0.0762617
0.0762201
0.0762186
0.0762572
0.0763778
0.0766825
0.0766358
0.0760621
0.0760417
0.0760128
0.0760147
0.0759995
0.0759978
0.07601
0.0760054
0.0760318
0.0760485
0.0758471
0.0756527
0.0757382
0.0757921
0.0757934
0.0757916
0.0757867
0.0757299
0.0756415
0.075832
0.0758128
0.0755714
0.0756712
0.075698
0.0756958
0.0756936
0.0756915
0.0756611
0.0755577
0.075795
0.0757618
0.0755565
0.0756618
0.075656
0.0756513
0.0756485
0.0756479
0.0756492
0.0755395
0.07574
0.0756805
0.0755165
0.0756241
0.075603
0.075604
0.0756006
0.0755926
0.0756082
0.0754953
0.0756534
0.0756056
0.0754703
0.0755702
0.0755407
0.0755486
0.0755443
0.0755273
0.0755498
0.075443
0.0755714
0.0755488
0.0754352
0.0755223
0.0754856
0.0754966
0.0754913
0.0754684
0.0754956
0.0753995
0.0755054
0.0755033
0.0754078
0.0754824
0.0754408
0.075452
0.075445
0.0754183
0.0754475
0.0753611
0.0754478
0.0754638
0.0753831
0.0754461
0.0754016
0.0754116
0.0754024
0.0753723
0.0754003
0.0753221
0.0753919
0.0754302
0.0753594
0.0754114
0.0753656
0.075373
0.075361
0.0753276
0.0753524
0.0752812
0.0753361
0.0754033
0.0753388
0.0753799
0.0753328
0.0753358
0.0753202
0.0752834
0.0753033
0.0752378
0.0752809
0.0753838
0.0753233
0.0753535
0.075304
0.0753009
0.0752805
0.0752396
0.0752531
0.0751917
0.0752253
0.075372
0.0753136
0.0753326
0.0752793
0.0752681
0.0752415
0.0751955
0.0752011
0.0751416
0.0751668
0.0753692
0.0753103
0.0753172
0.0752583
0.0752369
0.0752022
0.0751496
0.0751456
0.0750855
0.0751032
0.0753768
0.0753147
0.0753079
0.075241
0.075207
0.0751618
0.0751004
0.0750847
0.0750216
0.075032
0.0753965
0.0753287
0.0753059
0.0752276
0.0751779
0.075119
0.0750458
0.0750163
0.0749474
0.0749497
0.0754303
0.0753542
0.0753123
0.0752186
0.0751492
0.0750725
0.0749836
0.0749369
0.0748588
0.0748523
0.0754799
0.0753936
0.0753283
0.0752142
0.0751202
0.0750207
0.0749108
0.0748426
0.0747509
0.0747342
0.0755469
0.075449
0.075355
0.0752145
0.0750901
0.0749612
0.0748236
0.0747277
0.0746166
0.0745877
0.0756319
0.0755223
0.0753935
0.0752197
0.0750577
0.0748913
0.0747169
0.0745849
0.0744465
0.0744018
0.0757333
0.0756143
0.0754444
0.0752299
0.0750218
0.0748076
0.0745844
0.0744041
0.0742267
0.0741607
0.0758469
0.0757236
0.0755082
0.0752451
0.0749813
0.0747063
0.0744179
0.0741712
0.0739371
0.0738403
0.0759645
0.0758455
0.0755848
0.0752661
0.0749356
0.0745834
0.0742071
0.0738666
0.073547
0.0734026
0.0760754
0.0759708
0.075673
0.0752948
0.0748859
0.0744356
0.0739398
0.0734626
0.0730078
0.0727828
0.0761674
0.0760869
0.0757712
0.0753351
0.0748359
0.074262
0.0736019
0.0729198
0.0722388
0.0718654
0.0762313
0.0761813
0.0758762
0.0753927
0.0747949
0.0740684
0.0731829
0.0721881
0.0711058
0.0704064
0.0762671
0.0762466
0.07598
0.0754713
0.0747772
0.0738699
0.0726765
0.0711981
0.0693873
0.0678844
0.0762804
0.0762774
0.076061
0.075575
0.0748236
0.0737283
0.0721427
0.0699125
0.0668154
0.0627432
0.0762882
0.0762666
0.0760838
0.0756924
0.0749779
0.073724
0.0716866
0.0682069
0.0633076
0.0511824
0.076984
0.0770209
0.0766907
0.076572
0.076532
0.0765305
0.0765676
0.0766838
0.0770118
0.0769701
0.0761222
0.0760758
0.0760405
0.0760471
0.0760319
0.0760303
0.0760425
0.0760331
0.0760659
0.0761085
0.0757821
0.0755663
0.0756512
0.0757063
0.075707
0.0757052
0.075701
0.0756429
0.0755551
0.0757664
0.0757257
0.0754684
0.0755695
0.0755975
0.0755956
0.0755934
0.075591
0.0755595
0.0754546
0.0757075
0.075674
0.0754502
0.0755542
0.075551
0.0755468
0.0755441
0.0755429
0.0755416
0.075433
0.0756521
0.0755968
0.0754111
0.0755136
0.075495
0.0754955
0.0754921
0.0754847
0.0754978
0.0753899
0.0755688
0.0755283
0.0753735
0.0754668
0.075439
0.0754448
0.0754406
0.0754257
0.0754462
0.075346
0.0754933
0.0754792
0.0753498
0.0754307
0.0753959
0.0754039
0.0753987
0.0753786
0.0754038
0.0753142
0.0754351
0.0754419
0.0753335
0.0754021
0.0753627
0.0753707
0.0753638
0.0753402
0.0753668
0.0752871
0.0753857
0.0754095
0.0753183
0.0753756
0.0753335
0.0753401
0.075331
0.0753041
0.0753293
0.0752579
0.0753372
0.0753827
0.0753032
0.0753498
0.0753063
0.0753102
0.0752982
0.0752682
0.0752903
0.0752252
0.0752873
0.0753628
0.0752904
0.0753262
0.0752815
0.0752811
0.0752654
0.0752319
0.0752492
0.075189
0.0752376
0.0753488
0.0752817
0.075307
0.0752598
0.0752533
0.0752328
0.0751951
0.0752063
0.0751494
0.0751866
0.0753416
0.0752777
0.0752926
0.0752412
0.0752268
0.0751999
0.0751569
0.0751607
0.0751049
0.0751324
0.075343
0.0752796
0.0752831
0.0752257
0.0752012
0.0751662
0.0751162
0.0751105
0.0750533
0.0750735
0.0753547
0.075289
0.0752794
0.0752135
0.0751766
0.0751309
0.0750715
0.0750544
0.0749932
0.0750067
0.0753786
0.0753079
0.0752828
0.0752052
0.0751526
0.075093
0.0750214
0.0749905
0.0749226
0.0749283
0.0754169
0.0753389
0.0752947
0.0752014
0.075129
0.0750515
0.0749636
0.0749155
0.0748375
0.0748345
0.0754717
0.0753845
0.0753165
0.0752025
0.0751055
0.0750047
0.0748953
0.0748256
0.0747334
0.0747202
0.0755452
0.0754475
0.07535
0.0752091
0.0750813
0.0749507
0.074813
0.0747154
0.0746034
0.074578
0.0756383
0.0755304
0.0753967
0.0752219
0.0750558
0.0748873
0.0747123
0.074578
0.0744385
0.0743973
0.0757501
0.0756342
0.0754579
0.0752414
0.0750286
0.0748115
0.0745871
0.074404
0.0742257
0.0741631
0.0758759
0.0757579
0.0755348
0.0752688
0.0749993
0.0747205
0.0744303
0.0741803
0.0739457
0.0738525
0.0760058
0.0758957
0.0756283
0.075306
0.0749688
0.0746112
0.0742325
0.0738883
0.0735694
0.0734292
0.0761244
0.0760353
0.0757384
0.0753571
0.0749397
0.074482
0.0739829
0.073502
0.0730505
0.0728318
0.0762144
0.0761585
0.0758642
0.0754289
0.0749175
0.0743324
0.0736679
0.0729837
0.0723122
0.0719499
0.0762664
0.076247
0.0759992
0.0755269
0.0749105
0.0741658
0.0732741
0.0722814
0.0712238
0.0705482
0.0762874
0.0763052
0.0761304
0.075643
0.0749192
0.0739812
0.0727786
0.0713113
0.069563
0.068118
0.07627
0.0763056
0.0761812
0.0757121
0.074919
0.073778
0.0721775
0.0699701
0.0670125
0.0631028
0.0762355
0.0762067
0.0760095
0.0755536
0.0747581
0.0734475
0.0713944
0.067955
0.0633011
0.0516413
0.076702
0.0769814
0.0766456
0.0765249
0.0764871
0.0764855
0.0765204
0.0766385
0.0769716
0.0766877
0.0761358
0.0761202
0.0760587
0.0760612
0.0760476
0.076046
0.0760564
0.076051
0.0761097
0.0761217
0.0760168
0.0757801
0.0758436
0.0758921
0.075894
0.075892
0.0758865
0.0758348
0.0757679
0.076001
0.0759875
0.0757235
0.075809
0.075837
0.075837
0.0758347
0.0758304
0.0757985
0.0757094
0.0759693
0.0758906
0.0756714
0.0757572
0.0757601
0.0757574
0.0757547
0.075752
0.0757443
0.0756545
0.075869
0.0757677
0.0755936
0.0756748
0.0756644
0.075664
0.0756606
0.0756542
0.0756586
0.0755717
0.0757408
0.0756653
0.0755242
0.0755982
0.0755803
0.0755829
0.0755783
0.0755673
0.0755775
0.0754968
0.0756315
0.0755895
0.075474
0.0755392
0.0755154
0.0755192
0.0755131
0.0754984
0.0755124
0.0754393
0.0755467
0.0755302
0.0754352
0.075491
0.0754628
0.0754662
0.0754586
0.0754406
0.0754565
0.0753909
0.0754753
0.0754807
0.0754008
0.0754481
0.0754168
0.0754187
0.0754093
0.0753879
0.0754033
0.0753438
0.0754098
0.0754404
0.0753716
0.0754102
0.0753761
0.0753752
0.0753631
0.075338
0.075351
0.0752955
0.0753478
0.0754095
0.0753486
0.075378
0.0753405
0.0753356
0.0753198
0.0752908
0.0752999
0.0752471
0.0752889
0.0753874
0.0753307
0.0753511
0.0753098
0.0752992
0.0752787
0.0752452
0.0752491
0.0751976
0.0752311
0.075374
0.0753186
0.0753295
0.0752834
0.0752656
0.0752388
0.0751996
0.0751969
0.0751453
0.0751713
0.0753706
0.0753139
0.0753143
0.0752615
0.0752344
0.0751992
0.0751527
0.0751417
0.0750887
0.0751075
0.0753787
0.0753186
0.0753066
0.0752445
0.0752054
0.0751594
0.0751031
0.0750817
0.0750251
0.0750368
0.0754003
0.0753344
0.0753073
0.0752329
0.0751786
0.0751183
0.0750492
0.0750147
0.0749516
0.0749559
0.0754376
0.0753639
0.0753181
0.0752272
0.0751536
0.0750751
0.0749891
0.0749379
0.074865
0.0748612
0.0754933
0.0754101
0.0753405
0.0752281
0.07513
0.0750281
0.0749201
0.0748478
0.0747608
0.0747474
0.0755697
0.0754761
0.0753764
0.0752364
0.0751077
0.0749758
0.0748389
0.0747394
0.0746328
0.0746075
0.0756678
0.0755651
0.0754281
0.0752532
0.0750864
0.0749162
0.0747415
0.0746062
0.0744722
0.0744315
0.0757859
0.0756782
0.0754974
0.0752798
0.0750662
0.0748474
0.0746228
0.0744395
0.074267
0.0742055
0.0759174
0.0758124
0.0755858
0.0753177
0.0750475
0.0747672
0.0744766
0.0742273
0.0739997
0.0739081
0.076049
0.0759577
0.0756935
0.0753702
0.0750325
0.0746741
0.0742954
0.0739535
0.0736438
0.0735061
0.0761619
0.0760948
0.0758184
0.0754424
0.0750252
0.0745675
0.0740701
0.0735948
0.0731573
0.0729432