/*--------------------------------*- C++ -*----------------------------------*\
| =========                 |                                                 |
| \\      /  F ield         | OpenFOAM: The Open Source CFD Toolbox           |
|  \\    /   O peration     | Version:  4.1                                   |
|   \\  /    A nd           | Web:      www.OpenFOAM.org                      |
|    \\/     M anipulation  |                                                 |
\*---------------------------------------------------------------------------*/
FoamFile
{
    version     2.0;
    format      ascii;
    class       surfaceScalarField;
    location    "400";
    object      phi;
}
// * * * * * * * * * * * * * * * * * * * * * * * * * * * * * * * * * * * * * //

dimensions      [0 3 -1 0 0 0 0];

internalField   nonuniform List<scalar> 
33700
(
4.95136e-05
0.000901059
4.94443e-05
2.30812e-05
0.000971468
5.49824e-05
8.41392e-06
0.000957559
5.71256e-05
3.13978e-06
0.000948362
5.693e-05
8.67533e-08
0.000945913
5.71584e-05
-2.97169e-06
0.000945919
5.7158e-05
-8.25732e-06
0.000948377
5.69278e-05
-2.29466e-05
0.000957588
5.71175e-05
-4.93976e-05
0.000971497
5.49679e-05
0.00090111
4.95005e-05
3.11875e-05
0.000838855
3.10549e-05
2.3651e-05
0.000940943
3.81032e-05
1.344e-05
0.00092764
4.01729e-05
6.14257e-06
0.000916026
3.96762e-05
2.14878e-07
0.000911813
4.00715e-05
-5.72076e-06
0.000911835
4.00654e-05
-1.3016e-05
0.000916078
3.96402e-05
-2.32363e-05
0.00092777
4.00779e-05
-3.07604e-05
0.000941125
3.79308e-05
0.000839255
3.11105e-05
1.61586e-05
0.000806819
1.59181e-05
1.65275e-05
0.000918489
2.21277e-05
1.17374e-05
0.000908996
2.34768e-05
6.06486e-06
0.000898522
2.3219e-05
3.84491e-07
0.000893812
2.3725e-05
-5.32643e-06
0.000893873
2.37191e-05
-1.10452e-05
0.000898659
2.31795e-05
-1.5762e-05
0.000909237
2.3291e-05
-1.56361e-05
0.000919025
2.20093e-05
0.000807645
1.59928e-05
8.90529e-06
0.000789422
8.52882e-06
1.16759e-05
0.000902984
1.2771e-05
9.53719e-06
0.000898058
1.31122e-05
5.2404e-06
0.00088922
1.36339e-05
5.90556e-07
0.000884206
1.4292e-05
-4.10903e-06
0.000884325
1.42826e-05
-8.53143e-06
0.000889517
1.3601e-05
-1.0699e-05
0.000898468
1.2972e-05
-8.19262e-06
0.000903933
1.26183e-05
0.000790928
8.54578e-06
5.52849e-06
0.000778937
4.98863e-06
9.2029e-06
0.000891349
7.99024e-06
8.27368e-06
0.00089184
7.177e-06
4.75906e-06
0.000884343
8.41998e-06
8.43913e-07
0.000879007
9.14228e-06
-3.12962e-06
0.000879192
9.1348e-06
-6.82934e-06
0.000884826
8.41938e-06
-8.06065e-06
0.000892511
7.21642e-06
-4.52457e-06
0.000892513
7.9156e-06
0.000781512
4.91376e-06
4.36001e-06
0.000770996
3.60957e-06
7.63538e-06
0.000882099
6.00048e-06
7.44529e-06
0.000888138
3.91689e-06
4.51318e-06
0.000881574
5.72483e-06
1.16619e-06
0.00087607
6.30533e-06
-2.24802e-06
0.000876323
6.30326e-06
-5.4246e-06
0.000882273
5.74999e-06
-6.09091e-06
0.000889193
4.00977e-06
-3.06952e-06
0.000883478
6.04211e-06
0.000774869
3.5963e-06
4.25527e-06
0.000763513
3.25191e-06
6.55314e-06
0.000874479
5.34534e-06
6.86812e-06
0.0008857
2.1434e-06
4.37989e-06
0.000879565
4.51724e-06
1.59355e-06
0.000874038
4.83692e-06
-1.32254e-06
0.000874427
4.82882e-06
-4.12618e-06
0.000880534
4.56074e-06
-4.53452e-06
0.000887282
2.34222e-06
-2.48825e-06
0.000876076
5.38417e-06
0.000769133
3.27142e-06
4.48292e-06
0.000755928
3.12554e-06
6.00917e-06
0.000867635
5.33746e-06
6.56081e-06
0.000883648
1.52101e-06
4.44053e-06
0.000877373
4.33139e-06
2.11925e-06
0.000872048
4.3286e-06
-3.55633e-07
0.000872571
4.34642e-06
-2.91223e-06
0.000878694
4.41348e-06
-3.19427e-06
0.000885753
1.83388e-06
-2.03113e-06
0.000869505
5.43598e-06
0.000763957
3.1696e-06
4.8605e-06
0.000748093
2.99745e-06
5.89405e-06
0.000861053
5.56962e-06
6.59807e-06
0.00088165
1.31396e-06
4.79483e-06
0.000874812
4.38444e-06
2.76322e-06
0.000870041
4.05757e-06
6.65983e-07
0.000870613
4.07244e-06
-1.7484e-06
0.00087664
4.48762e-06
-1.82613e-06
0.000884365
1.48943e-06
-1.61072e-06
0.000863687
5.6337e-06
0.000759238
3.13418e-06
5.35795e-06
0.00073989
2.87043e-06
6.06787e-06
0.000854653
5.71401e-06
7.06642e-06
0.000879487
1.18863e-06
5.44624e-06
0.000872035
4.42148e-06
3.68215e-06
0.000868024
3.80414e-06
1.82788e-06
0.00086872
3.76871e-06
-5.74571e-07
0.000874558
4.50642e-06
-4.49056e-07
0.000883138
1.1285e-06
-1.14381e-06
0.000858668
5.74606e-06
0.000755001
3.11968e-06
6.03806e-06
0.00073111
2.7696e-06
6.43559e-06
0.000848497
5.78649e-06
7.95424e-06
0.000876991
1.00632e-06
6.42433e-06
0.000869208
4.38543e-06
4.95144e-06
0.00086603
3.49416e-06
3.20889e-06
0.000867056
3.43281e-06
7.14193e-07
0.000872627
4.4525e-06
8.7897e-07
0.000882178
8.26397e-07
-5.4856e-07
0.000854372
5.75828e-06
0.00075138
3.10167e-06
6.95803e-06
0.000721515
2.67049e-06
7.14619e-06
0.000842639
5.70201e-06
9.25272e-06
0.000874148
7.70097e-07
7.80495e-06
0.000866429
4.26164e-06
6.59245e-06
0.000864119
3.15719e-06
4.91332e-06
0.000865699
3.06756e-06
2.22446e-06
0.000870993
4.35455e-06
2.28416e-06
0.000881562
5.89988e-07
2.01548e-07
0.000850855
5.63813e-06
0.000748513
3.09758e-06
8.16433e-06
0.000710882
2.50745e-06
8.38616e-06
0.000836948
5.50836e-06
1.10011e-05
0.000871025
5.47538e-07
9.70897e-06
0.000863681
4.08041e-06
8.6967e-06
0.000862336
2.83476e-06
7.05117e-06
0.000864676
2.70555e-06
4.11605e-06
0.000869757
4.20621e-06
4.02034e-06
0.000881389
3.0522e-07
1.05646e-06
0.000848431
5.42748e-06
0.000746447
3.1541e-06
9.79293e-06
0.000698824
2.30962e-06
1.0199e-05
0.000831327
5.25808e-06
1.32964e-05
0.000867674
2.98003e-07
1.22781e-05
0.000860886
3.85776e-06
1.14015e-05
0.000860713
2.54343e-06
9.7671e-06
0.000863978
2.37433e-06
6.5509e-06
0.000868983
4.03063e-06
6.17505e-06
0.000881799
6.10765e-09
2.08367e-06
0.000847387
5.17832e-06
0.000745348
3.21442e-06
1.19157e-05
0.000684854
2.10356e-06
1.26978e-05
0.000825587
5.00553e-06
1.63711e-05
0.000863908
1.39907e-07
1.56912e-05
0.000857959
3.65517e-06
1.49195e-05
0.000859195
2.33637e-06
1.32589e-05
0.000863562
2.12031e-06
9.64282e-06
0.000868751
3.89023e-06
8.73039e-06
0.000882924
-1.70882e-07
3.40974e-06
0.000847774
4.97678e-06
0.000745546
3.24419e-06
1.46828e-05
0.000668284
1.94006e-06
1.61938e-05
0.000819301
4.82438e-06
2.05306e-05
0.000859483
1.38598e-07
2.0205e-05
0.000854814
3.52174e-06
1.95327e-05
0.000857651
2.26588e-06
1.77505e-05
0.000863428
1.96307e-06
1.35571e-05
0.000869174
3.81481e-06
1.17928e-05
0.000884925
-1.93802e-07
5.11503e-06
0.000849629
4.86754e-06
0.000747385
3.30907e-06
1.83201e-05
0.00064813
1.88948e-06
2.09978e-05
0.000811938
4.73666e-06
2.60762e-05
0.000854146
3.10882e-07
2.61614e-05
0.000851311
3.46983e-06
2.55663e-05
0.000855987
2.3102e-06
2.35303e-05
0.000863615
1.89763e-06
1.85769e-05
0.000870367
3.80601e-06
1.56284e-05
0.000888008
-8.99169e-08
7.28266e-06
0.000853177
4.84242e-06
0.000751212
3.48819e-06
2.30345e-05
0.000623101
2.05199e-06
2.74645e-05
0.000802739
4.82088e-06
3.33893e-05
0.00084757
7.02695e-07
3.39743e-05
0.00084724
3.53814e-06
3.3437e-05
0.000854077
2.49869e-06
3.09901e-05
0.000864139
1.97172e-06
2.50784e-05
0.00087245
3.87506e-06
2.0554e-05
0.000892401
1.75105e-07
1.00614e-05
0.000858795
4.92027e-06
0.000757466
3.84129e-06
2.90181e-05
0.000591583
2.55801e-06
3.60761e-05
0.000790543
5.18992e-06
4.29733e-05
0.00083935
1.37455e-06
4.41558e-05
0.000842313
3.79724e-06
4.36568e-05
0.000851728
2.89973e-06
4.0668e-05
0.000864935
2.24198e-06
3.35035e-05
0.000875564
4.09673e-06
2.6976e-05
0.000898349
6.24024e-07
1.36668e-05
0.000866999
5.15e-06
0.000766743
4.42265e-06
3.64386e-05
0.000551606
3.59769e-06
4.73873e-05
0.000773642
6.00316e-06
5.54841e-05
0.00082889
2.41444e-06
5.73502e-05
0.000836152
4.34608e-06
5.68729e-05
0.000848667
3.58883e-06
5.32345e-05
0.000865847
2.77472e-06
4.44692e-05
0.000879836
4.53968e-06
3.539e-05
0.000906145
1.32695e-06
1.83758e-05
0.000878454
5.60466e-06
0.000779833
5.31846e-06
4.53369e-05
0.000500937
5.39239e-06
6.19995e-05
0.000749539
7.48997e-06
7.16954e-05
0.000815262
3.98154e-06
7.43605e-05
0.000828216
5.32144e-06
7.39416e-05
0.000844459
4.67683e-06
6.95391e-05
0.000866591
3.70774e-06
5.88087e-05
0.000885304
5.30964e-06
4.64527e-05
0.000916146
2.39943e-06
2.46029e-05
0.000893954
6.39402e-06
0.000797823
6.64567e-06
5.54978e-05
0.000437316
8.18313e-06
8.03853e-05
0.000714755
9.94317e-06
9.2471e-05
0.000796915
6.30727e-06
9.61497e-05
0.000817672
6.9143e-06
9.58996e-05
0.000838431
6.32814e-06
9.07081e-05
0.000866629
5.20183e-06
7.76428e-05
0.000891851
6.5649e-06
6.11431e-05
0.00092872
3.97019e-06
3.29394e-05
0.000914508
7.69353e-06
0.000822209
8.58421e-06
6.61972e-05
0.000359099
1.20806e-05
0.000102545
0.00066483
1.3621e-05
0.000118619
0.000771181
9.70412e-06
0.000123833
0.000803114
9.39098e-06
0.000124052
0.000829487
8.77188e-06
0.000118257
0.000864986
7.48607e-06
0.000102591
0.000899032
8.53128e-06
8.08839e-05
0.000944209
6.25993e-06
4.42913e-05
0.000941403
9.73885e-06
0.000855136
1.13921e-05
7.58477e-05
0.000266456
1.68605e-05
0.00012729
0.000594855
1.85757e-05
0.000150507
0.000733506
1.44984e-05
0.000158627
0.00078189
1.31479e-05
0.000160034
0.0008158
1.23263e-05
0.000154209
0.000859985
1.08718e-05
0.000135979
0.000905782
1.15253e-05
0.000107861
0.00096279
9.57562e-06
6.00689e-05
0.000976359
1.2873e-05
0.000899792
1.54389e-05
8.15798e-05
0.00016343
2.15252e-05
0.000151312
0.000500859
2.43092e-05
0.000187211
0.000676692
2.09553e-05
0.00020158
0.000748826
1.87375e-05
0.000205854
0.000794109
1.74625e-05
0.000201269
0.000848835
1.57829e-05
0.000181192
0.000909923
1.59794e-05
0.000145636
0.000984046
1.43388e-05
8.28388e-05
0.00102161
1.75825e-05
0.000961364
2.12845e-05
7.83706e-05
6.16487e-05
2.35284e-05
0.000167898
0.000382007
2.93769e-05
0.000225266
0.000590164
2.92041e-05
0.000252972
0.000694094
2.70714e-05
0.000264007
0.000758182
2.49437e-05
0.000263227
0.000826908
2.27601e-05
0.000243283
0.000907488
2.24273e-05
0.000200009
0.00100626
2.11049e-05
0.000116856
0.00108025
2.4541e-05
0.00104854
2.97103e-05
5.65725e-05
-1.66677e-05
2.19098e-05
0.000166745
0.000240327
3.15784e-05
0.000257197
0.000461176
3.85896e-05
0.000310174
0.000602092
3.90854e-05
0.000336205
0.000696144
3.60742e-05
0.000344682
0.000785822
3.26764e-05
0.000329583
0.000891132
3.15264e-05
0.000280981
0.00102435
3.05518e-05
0.00017281
0.0011537
3.47838e-05
0.00117931
4.20685e-05
7.67039e-06
-5.37928e-05
2.9642e-05
0.000138296
7.06801e-05
3.91198e-05
0.000271438
0.0002765
5.16073e-05
0.0003664
0.000451739
5.54648e-05
0.000423319
0.000587461
5.18448e-05
0.000452279
0.000710433
4.65217e-05
0.000451423
0.000848103
4.39554e-05
0.000404565
0.00102816
4.31432e-05
0.000268377
0.00124092
4.90215e-05
0.00138781
5.98998e-05
-1.46934e-06
-8.63265e-05
3.40833e-05
0.000100671
-8.25483e-05
5.11644e-05
0.000250265
5.53392e-05
7.16407e-05
0.000392154
0.000229445
8.04867e-05
0.000505931
0.000397813
7.59664e-05
0.000583915
0.000565621
6.69223e-05
0.000624319
0.000746586
6.12286e-05
0.000595712
0.000997055
5.98034e-05
0.000475679
0.00129198
6.90749e-05
0.00177811
8.54489e-05
7.84925e-05
1.0112e-05
-0.000174878
0.00017858
2.70564e-05
-0.000209667
0.000284688
6.13424e-05
-0.000112107
0.000407801
8.87301e-05
1.76002e-05
0.00055765
9.7296e-05
0.000150694
0.000709846
9.14285e-05
0.000322061
0.000848853
8.21002e-05
0.000525571
0.000901572
7.79337e-05
0.000866508
0.000891125
8.6812e-05
0.00121573
0.00011688
0.00255239
5.50404e-05
0.000971395
2.30106e-05
2.07562e-05
0.00106857
2.07013e-05
6.48093e-06
0.00105002
2.13824e-05
2.2806e-06
0.00103959
2.15508e-05
6.70527e-08
0.0010377
2.1679e-05
-2.1526e-06
0.00103771
2.16789e-05
-6.37149e-06
0.0010396
2.15491e-05
-2.07117e-05
0.00105009
2.13756e-05
-5.51747e-05
0.00106872
2.07117e-05
0.000971277
2.30519e-05
3.82105e-05
0.000940764
2.34874e-05
2.29979e-05
0.00109908
2.28308e-05
1.29415e-05
0.00107725
2.30329e-05
5.80256e-06
0.00106328
2.31571e-05
1.9411e-07
0.00106006
2.33539e-05
-5.43028e-06
0.00106009
2.33447e-05
-1.26389e-05
0.00106337
2.31175e-05
-2.27101e-05
0.00107723
2.30322e-05
-3.77553e-05
0.00109889
2.28279e-05
0.000941147
2.34961e-05
2.23549e-05
0.00091813
1.62196e-05
1.83005e-05
0.00110726
1.80319e-05
1.17169e-05
0.00109045
1.68996e-05
5.73621e-06
0.0010758
1.67155e-05
3.7071e-07
0.00107231
1.68812e-05
-5.02699e-06
0.00107236
1.68848e-05
-1.11179e-05
0.00107598
1.66966e-05
-1.80581e-05
0.00109059
1.69102e-05
-2.18045e-05
0.00110637
1.8308e-05
0.000919237
1.61159e-05
1.31173e-05
0.000902368
1.12044e-05
1.54803e-05
0.00110262
1.50836e-05
9.96519e-06
0.00109588
1.32435e-05
4.86243e-06
0.00108166
1.29227e-05
5.64488e-07
0.00107784
1.31038e-05
-3.77545e-06
0.00107791
1.31167e-05
-9.02399e-06
0.00108194
1.29355e-05
-1.48446e-05
0.00109623
1.31909e-05
-1.2239e-05
0.00110116
1.52677e-05
0.000904398
1.11675e-05
8.48403e-06
0.000890344
8.56722e-06
1.30897e-05
0.00109354
1.25111e-05
8.90252e-06
0.00109639
1.09084e-05
4.43512e-06
0.00108368
1.09159e-05
8.02882e-07
0.00107949
1.1181e-05
-2.8775e-06
0.00107959
1.11811e-05
-7.4734e-06
0.00108409
1.09123e-05
-1.16403e-05
0.00109685
1.08182e-05
-7.31053e-06
0.00109252
1.22653e-05
0.000893375
8.65301e-06
6.6923e-06
0.000880549
6.75905e-06
1.14906e-05
0.00108409
1.07088e-05
8.06005e-06
0.00109462
9.16938e-06
4.28501e-06
0.00108361
9.63126e-06
1.10088e-06
0.00107913
9.89726e-06
-2.15292e-06
0.00107932
9.8857e-06
-6.12408e-06
0.00108424
9.62788e-06
-9.71836e-06
0.00109535
9.15792e-06
-5.27844e-06
0.00108358
1.05885e-05
0.000884887
6.83555e-06
6.25376e-06
0.000872154
5.44655e-06
1.08128e-05
0.00107523
9.70157e-06
7.45036e-06
0.00109239
7.79562e-06
4.26831e-06
0.00108274
8.62048e-06
1.47223e-06
0.00107814
8.67861e-06
-1.40778e-06
0.00107837
8.71486e-06
-4.87777e-06
0.00108371
8.61674e-06
-8.38935e-06
0.00109348
7.77935e-06
-4.39169e-06
0.00107553
9.48556e-06
0.000878193
5.6057e-06
6.59449e-06
0.000864254
4.48885e-06
1.02699e-05
0.00106812
8.82302e-06
7.22786e-06
0.00109036
6.65159e-06
4.45561e-06
0.00108222
7.69083e-06
1.94259e-06
0.00107752
7.53184e-06
-6.48491e-07
0.00107784
7.53695e-06
-3.75687e-06
0.00108362
7.67913e-06
-7.04223e-06
0.00109214
6.51167e-06
-4.22609e-06
0.00106974
8.45968e-06
0.000872506
4.66378e-06
7.22997e-06
0.000856351
3.7321e-06
1.00216e-05
0.00106284
8.12182e-06
7.37833e-06
0.00108852
5.8555e-06
4.88959e-06
0.00108204
7.11207e-06
2.58892e-06
0.00107714
6.79365e-06
1.25338e-07
0.00107777
6.66788e-06
-2.78933e-06
0.00108398
7.09921e-06
-6.20053e-06
0.00109148
5.62386e-06
-4.10302e-06
0.00106532
8.01299e-06
0.000867835
3.73601e-06
7.88187e-06
0.000848199
3.20439e-06
1.00968e-05
0.00105885
7.5585e-06
7.8288e-06
0.00108695
5.0975e-06
5.5781e-06
0.00108201
6.76175e-06
3.42616e-06
0.00107697
6.19089e-06
1.00883e-06
0.00107796
6.05442e-06
-1.83386e-06
0.00108462
6.77747e-06
-5.4612e-06
0.00109134
4.94915e-06
-3.82499e-06
0.00106166
7.8254e-06
0.000864248
2.91728e-06
8.65206e-06
0.000839702
2.67795e-06
1.06497e-05
0.00105543
7.27183e-06
8.55102e-06
0.00108569
4.42073e-06
6.53623e-06
0.00108194
6.52819e-06
4.47629e-06
0.00107695
5.62994e-06
2.10726e-06
0.00107825
5.57271e-06
-7.27481e-07
0.00108541
6.55499e-06
-4.43398e-06
0.00109157
4.35683e-06
-3.33895e-06
0.00105886
7.51722e-06
0.000861713
2.33236e-06
9.48837e-06
0.000830758
2.19003e-06
1.156e-05
0.00105203
7.08294e-06
9.60389e-06
0.00108461
3.87329e-06
7.82748e-06
0.00108167
6.36681e-06
5.83832e-06
0.00107701
5.14582e-06
3.50082e-06
0.00107858
5.13571e-06
6.54833e-07
0.0010863
6.36365e-06
-3.06891e-06
0.00109216
3.78387e-06
-2.62767e-06
0.00105705
7.05944e-06
0.000860258
1.96011e-06
1.04925e-05
0.000821037
1.79808e-06
1.26948e-05
0.0010486
6.7992e-06
1.10619e-05
0.00108336
3.48456e-06
9.52939e-06
0.00108114
6.20902e-06
7.61489e-06
0.00107703
4.78756e-06
5.26234e-06
0.00107893
4.76747e-06
2.30214e-06
0.00108732
6.20971e-06
-1.67858e-06
0.00109316
3.34349e-06
-1.70524e-06
0.00105571
6.84323e-06
0.000860177
1.56589e-06
1.17639e-05
0.000810266
1.37813e-06
1.44169e-05
0.0010446
6.66598e-06
1.31599e-05
0.00108165
3.32551e-06
1.17838e-05
0.00108036
6.06051e-06
9.93565e-06
0.00107692
4.55933e-06
7.49667e-06
0.00107934
4.45852e-06
4.26211e-06
0.00108853
6.10769e-06
-1.02192e-07
0.00109455
3.03441e-06
-5.678e-07
0.00105461
6.79493e-06
0.000861667
1.19189e-06
1.34443e-05
0.000797999
9.86116e-07
1.67973e-05
0.00103967
6.6326e-06
1.60194e-05
0.0010794
3.22041e-06
1.47634e-05
0.00107937
5.95803e-06
1.29654e-05
0.00107672
4.39069e-06
1.03789e-05
0.00107993
4.1656e-06
6.75562e-06
0.00109007
6.03143e-06
2.02697e-06
0.00109639
2.76817e-06
7.37372e-07
0.00105429
6.63499e-06
0.000864656
1.0271e-06
1.57345e-05
0.000783493
7.69996e-07
1.98626e-05
0.00103385
6.5702e-06
1.97239e-05
0.00107658
3.15002e-06
1.86528e-05
0.00107809
5.92181e-06
1.69075e-05
0.00107651
4.26744e-06
1.41225e-05
0.00108079
3.93901e-06
1.00152e-05
0.00109206
5.97839e-06
4.85205e-06
0.00109887
2.53996e-06
2.26609e-06
0.00105544
6.35664e-06
0.000869188
1.07802e-06
1.87526e-05
0.000765954
7.32896e-07
2.39137e-05
0.0010269
6.56927e-06
2.45465e-05
0.00107308
3.22769e-06
2.37275e-05
0.00107646
5.96763e-06
2.20239e-05
0.00107631
4.2684e-06
1.89725e-05
0.00108196
3.83872e-06
1.4252e-05
0.00109465
5.98947e-06
8.42251e-06
0.00110225
2.41266e-06
4.17688e-06
0.00105846
6.11408e-06
0.000875614
1.27365e-06
2.26645e-05
0.000744465
9.34174e-07
2.93188e-05
0.00101838
6.74187e-06
3.08449e-05
0.0010688
3.50409e-06
3.03352e-05
0.00107445
6.11054e-06
2.86494e-05
0.00107613
4.40881e-06
2.52532e-05
0.0010835
3.87752e-06
1.97349e-05
0.00109803
6.06297e-06
1.29354e-05
0.00110685
2.42254e-06
6.62615e-06
0.00106378
5.96168e-06
0.000884481
1.63592e-06
2.76518e-05
0.000717926
1.50278e-06
3.64563e-05
0.00100764
7.1682e-06
3.90511e-05
0.00106357
4.05528e-06
3.89158e-05
0.00107199
6.43556e-06
3.72261e-05
0.00107602
4.75331e-06
3.33823e-05
0.00108555
4.08081e-06
2.68611e-05
0.00110244
6.25683e-06
1.86909e-05
0.00111312
2.56872e-06
9.78921e-06
0.00107193
5.94767e-06
0.000896539
2.18768e-06
3.38881e-05
0.000685099
2.5936e-06
4.58122e-05
0.000993762
8.00869e-06
4.96872e-05
0.00105719
4.96435e-06
5.00186e-05
0.00106901
7.04545e-06
4.83203e-05
0.00107597
5.38236e-06
4.3911e-05
0.00108828
4.4988e-06
3.61396e-05
0.00110817
6.63322e-06
2.60811e-05
0.00112162
2.93436e-06
1.3906e-05
0.0010836
6.15472e-06
0.000912824
2.97358e-06
4.15035e-05
0.000644593
4.45192e-06
5.78995e-05
0.000975434
9.46675e-06
6.33954e-05
0.00104935
6.37319e-06
6.43194e-05
0.0010654
8.05473e-06
6.26434e-05
0.00107597
6.39877e-06
5.75836e-05
0.00109184
5.26011e-06
4.82613e-05
0.00111557
7.27675e-06
3.57116e-05
0.001133
3.62277e-06
1.9317e-05
0.00109979
6.64871e-06
0.000934705
4.11555e-06
5.05314e-05
0.000594907
7.39442e-06
7.32456e-05
0.000950847
1.18596e-05
8.09412e-05
0.00103949
8.51443e-06
8.26553e-05
0.00106099
9.64567e-06
8.11203e-05
0.00107589
7.98288e-06
7.53893e-05
0.00109629
6.52774e-06
6.42209e-05
0.00112502
8.32885e-06
4.84095e-05
0.00114811
4.71559e-06
2.65236e-05
0.00112186
7.55779e-06
0.000964067
5.77561e-06
6.07435e-05
0.000534524
1.17771e-05
9.21657e-05
0.00091754
1.55468e-05
0.000103154
0.00102653
1.17177e-05
0.000106044
0.00105545
1.20864e-05
0.000104938
0.00107544
1.03698e-05
9.86747e-05
0.00110156
8.52483e-06
8.54225e-05
0.00113686
9.99057e-06
6.54197e-05
0.00116799
6.42264e-06
3.62813e-05
0.0011517
9.07655e-06
0.0010036
8.17192e-06
7.143e-05
0.000462197
1.78139e-05
0.000114513
0.000872129
2.09428e-05
0.000130781
0.00100843
1.63686e-05
0.0001357
0.00104797
1.57433e-05
0.000135626
0.001074
1.38845e-05
0.000129292
0.00110723
1.15673e-05
0.000113924
0.00115124
1.25475e-05
8.86973e-05
0.00119379
9.03782e-06
4.98423e-05
0.00119197
1.14887e-05
0.00105727
1.1624e-05
8.10976e-05
0.00037765
2.5035e-05
0.000139124
0.00081028
2.81709e-05
0.000164201
0.000981333
2.30072e-05
0.000173009
0.00103677
2.11708e-05
0.000175132
0.00107041
1.89672e-05
0.000169783
0.00111234
1.60655e-05
0.000152797
0.00116788
1.63603e-05
0.000121429
0.00122661
1.29126e-05
6.94757e-05
0.00124633
1.51953e-05
0.00113145
1.65951e-05
8.69825e-05
0.000282504
3.17653e-05
0.000162983
0.000726995
3.67034e-05
0.000202793
0.000938594
3.21726e-05
0.000219469
0.00101798
2.9221e-05
0.000226073
0.00106253
2.62564e-05
0.000223767
0.00111489
2.25421e-05
0.00020673
0.00118547
2.18967e-05
0.000168928
0.00126703
1.84913e-05
9.89689e-05
0.00132011
2.07257e-05
0.00123642
2.37072e-05
8.49945e-05
0.000184515
3.5002e-05
0.000180611
0.000618863
4.41432e-05
0.00024372
0.000870308
4.38109e-05
0.000275767
0.000984162
4.09031e-05
0.000291522
0.00104625
3.66396e-05
0.00029616
0.00111142
3.15398e-05
0.000282863
0.00120075
2.9559e-05
0.000240513
0.00131378
2.61535e-05
0.000148312
0.00141834
2.87336e-05
0.00139294
3.3844e-05
6.8083e-05
0.000110818
3.53757e-05
0.000185494
0.000490298
5.03281e-05
0.000282011
0.000767847
5.75946e-05
0.000341298
0.000923885
5.6495e-05
0.000374947
0.00101419
5.02918e-05
0.000393511
0.00109663
4.27654e-05
0.000391871
0.0012075
3.88478e-05
0.000351751
0.00136158
3.54387e-05
0.00023347
0.00154625
3.93846e-05
0.00163864
4.76769e-05
4.60468e-05
7.12999e-05
2.77017e-05
0.000172731
0.000359772
5.50597e-05
0.000303937
0.000636596
7.1723e-05
0.000406005
0.000827857
7.44748e-05
0.000476007
0.000953858
6.63114e-05
0.00052286
0.00106189
5.48285e-05
0.000549569
0.00119423
4.77814e-05
0.000523971
0.00140278
4.4202e-05
0.00042104
0.00166644
5.1839e-05
0.00207875
6.63986e-05
6.58986e-05
-8.93035e-06
2.45674e-05
0.000177835
3.82082e-05
0.000236705
0.000317051
6.47422e-05
0.000493976
0.000453801
7.2945e-05
0.000706877
0.000575276
6.61262e-05
0.000863534
0.000678112
5.27893e-05
0.000997666
0.000775481
4.30535e-05
0.00113589
0.000806907
3.96212e-05
0.00140968
0.000797515
5.37627e-05
0.00170892
8.54919e-05
0.00290768
5.718e-05
0.000957501
8.3325e-06
2.14338e-05
0.00105004
6.41807e-06
6.40022e-06
0.00103008
6.34276e-06
2.15098e-06
0.00101946
6.35322e-06
6.17316e-08
0.00101741
6.36549e-06
-2.03496e-06
0.00101742
6.36506e-06
-6.30677e-06
0.00101948
6.35191e-06
-2.14254e-05
0.00103016
6.34247e-06
-5.74082e-05
0.00105027
6.42803e-06
0.000957303
8.34365e-06
4.02823e-05
0.000927492
1.32314e-05
2.32085e-05
0.00107721
1.27631e-05
1.26591e-05
0.00105121
1.24946e-05
5.78905e-06
0.00103701
1.25159e-05
1.74468e-07
0.00103388
1.25457e-05
-5.46234e-06
0.00103391
1.25432e-05
-1.24097e-05
0.00103708
1.25098e-05
-2.29706e-05
0.00105129
1.25012e-05
-3.97495e-05
0.00107711
1.27914e-05
0.00092783
1.32289e-05
2.36775e-05
0.000908651
1.14077e-05
1.71526e-05
0.00109041
1.13957e-05
1.11043e-05
0.00106341
1.07977e-05
5.67057e-06
0.00104844
1.07634e-05
3.56047e-07
0.00104532
1.07997e-05
-4.98648e-06
0.00104538
1.07998e-05
-1.05223e-05
0.00104859
1.07636e-05
-1.67183e-05
0.00106361
1.08296e-05
-2.30487e-05
0.00109032
1.14583e-05
0.00090956
1.1352e-05
1.34382e-05
0.000897397
9.05048e-06
1.35712e-05
0.00109591
9.48842e-06
9.09644e-06
0.00107254
8.63354e-06
4.5952e-06
0.00105738
8.53329e-06
5.59162e-07
0.00105392
8.59057e-06
-3.51325e-06
0.00105402
8.59199e-06
-8.13736e-06
0.00105767
8.53267e-06
-1.28187e-05
0.00107287
8.64754e-06
-1.26087e-05
0.00109586
9.5511e-06
0.000899124
9.01235e-06
7.66617e-06
0.000890777
7.5579e-06
1.14696e-05
0.00109644
8.21883e-06
8.08715e-06
0.00107946
7.42063e-06
4.11244e-06
0.00106486
7.4578e-06
8.07297e-07
0.00106085
7.60635e-06
-2.54771e-06
0.001061
7.60613e-06
-6.66287e-06
0.0010653
7.44347e-06
-1.0224e-05
0.00107991
7.38615e-06
-6.64113e-06
0.00109638
8.20738e-06
0.000893588
7.56821e-06
4.54559e-06
0.000886612
6.42047e-06
9.92534e-06
0.00109468
7.14054e-06
7.24822e-06
0.00108502
6.33254e-06
3.95459e-06
0.00107126
6.57215e-06
1.10847e-06
0.00106683
6.80966e-06
-1.81199e-06
0.00106705
6.80769e-06
-5.30363e-06
0.00107192
6.55237e-06
-8.1987e-06
0.00108573
6.28021e-06
-3.23173e-06
0.00109494
7.10329e-06
0.000890726
6.48924e-06
3.06202e-06
0.000883542
5.50239e-06
8.9735e-06
0.0010923
6.21986e-06
6.49147e-06
0.00109013
5.21331e-06
3.91206e-06
0.00107689
5.62619e-06
1.47636e-06
0.00107213
5.86791e-06
-1.04159e-06
0.00107247
5.87475e-06
-3.89359e-06
0.00107783
5.61136e-06
-6.7471e-06
0.00109123
5.18865e-06
-1.40986e-06
0.00109297
6.16063e-06
0.000889437
5.51019e-06
2.6669e-06
0.000880586
4.82942e-06
8.15923e-06
0.00109019
5.49398e-06
5.99154e-06
0.00109475
4.25735e-06
4.04269e-06
0.00108178
4.80409e-06
1.96342e-06
0.00107681
4.99128e-06
-2.50014e-07
0.00107727
5.00325e-06
-2.56632e-06
0.00108308
4.80026e-06
-5.29569e-06
0.0010963
4.22069e-06
-5.8622e-07
0.00109131
5.45766e-06
0.00088882
4.72262e-06
2.82542e-06
0.000877258
4.28947e-06
7.58593e-06
0.0010886
5.00858e-06
5.80657e-06
0.00109885
3.58676e-06
4.41119e-06
0.0010861
4.24127e-06
2.60097e-06
0.0010811
4.37352e-06
5.62578e-07
0.00108168
4.35295e-06
-1.32481e-06
0.00108788
4.24322e-06
-3.8651e-06
0.00110104
3.47549e-06
-8.24174e-08
0.00109054
5.04942e-06
0.000888312
4.19027e-06
3.16621e-06
0.000873483
3.87032e-06
7.52766e-06
0.00108717
4.67954e-06
5.95056e-06
0.00110253
3.05809e-06
5.03343e-06
0.00108998
3.86169e-06
3.38918e-06
0.00108507
3.91536e-06
1.47153e-06
0.00108584
3.86909e-06
-7.74555e-08
0.00109238
3.87331e-06
-2.52574e-06
0.00110561
2.88023e-06
5.15694e-07
0.00109059
4.78468e-06
0.000887923
3.85248e-06
3.54568e-06
0.000869095
3.57733e-06
7.75044e-06
0.00108588
4.41453e-06
6.39614e-06
0.00110577
2.58926e-06
5.91722e-06
0.00109346
3.57577e-06
4.39067e-06
0.00108877
3.52123e-06
2.57335e-06
0.00108981
3.47362e-06
1.28718e-06
0.00109669
3.59242e-06
-1.12717e-06
0.00111007
2.35834e-06
1.20937e-06
0.0010913
4.51084e-06
0.000887832
3.66454e-06
4.08903e-06
0.000863973
3.28036e-06
8.32327e-06
0.00108453
4.25427e-06
7.21533e-06
0.00110858
2.22684e-06
7.12791e-06
0.0010966
3.37225e-06
5.70306e-06
0.00109221
3.18622e-06
3.94241e-06
0.00109363
3.1407e-06
2.8195e-06
0.00110085
3.37348e-06
3.10529e-07
0.00111451
1.90842e-06
1.96352e-06
0.00109252
4.23794e-06
0.000888279
3.50944e-06
4.91215e-06
0.000857912
3.00427e-06
9.28185e-06
0.00108287
4.14445e-06
8.49947e-06
0.00111093
1.9626e-06
8.73915e-06
0.00109939
3.23353e-06
7.42057e-06
0.00109544
2.92547e-06
5.66883e-06
0.00109733
2.87303e-06
4.58186e-06
0.00110498
3.22405e-06
1.90114e-06
0.00111903
1.55525e-06
2.89063e-06
0.00109436
4.06814e-06
0.000889432
3.3378e-06
6.03672e-06
0.000850499
2.81075e-06
1.06771e-05
0.00108086
4.0919e-06
1.03531e-05
0.00111282
1.81642e-06
1.0865e-05
0.00110185
3.14572e-06
9.66222e-06
0.00109851
2.75191e-06
7.85213e-06
0.00110098
2.66865e-06
6.66445e-06
0.00110918
3.14524e-06
3.69327e-06
0.00112377
1.31499e-06
4.00077e-06
0.00109684
4.05911e-06
0.000891529
3.12991e-06
7.6416e-06
0.000841255
2.64445e-06
1.27178e-05
0.00107834
4.12809e-06
1.28976e-05
0.00111414
1.77423e-06
1.3668e-05
0.00110397
3.11039e-06
1.25761e-05
0.00110139
2.64856e-06
1.06313e-05
0.00110464
2.50627e-06
9.21908e-06
0.00111356
3.11568e-06
5.813e-06
0.00112885
1.13961e-06
5.23958e-06
0.00109998
4.10996e-06
0.000894859
2.97085e-06
9.90143e-06
0.000829625
2.55368e-06
1.55457e-05
0.0010751
4.21306e-06
1.62868e-05
0.0011148
1.79566e-06
1.73363e-05
0.00110577
3.13075e-06
1.63428e-05
0.0011041
2.59933e-06
1.42113e-05
0.00110837
2.39174e-06
1.24509e-05
0.00111823
3.12049e-06
8.46795e-06
0.00113442
1.002e-06
6.6564e-06
0.00110407
4.13348e-06
0.000899705
2.92324e-06
1.2898e-05
0.000814922
2.59273e-06
1.93277e-05
0.00107094
4.3497e-06
2.07563e-05
0.00111473
1.92054e-06
2.2107e-05
0.00110721
3.22264e-06
2.1206e-05
0.00110669
2.63288e-06
1.88327e-05
0.00111227
2.35933e-06
1.6566e-05
0.00112336
3.17879e-06
1.18121e-05
0.0011407
9.36031e-07
8.39977e-06
0.00110949
4.15682e-06
0.000906439
2.97403e-06
1.67595e-05
0.00079634
2.81161e-06
2.43647e-05
0.00106551
4.61202e-06
2.66259e-05
0.00111382
2.19518e-06
2.8301e-05
0.00110828
3.40974e-06
2.74787e-05
0.00110919
2.77957e-06
2.47922e-05
0.00111646
2.42676e-06
2.18105e-05
0.00112914
3.30841e-06
1.60159e-05
0.001148
9.70921e-07
1.06141e-05
0.00111667
4.22587e-06
0.0009156
3.12281e-06
2.16352e-05
0.000772956
3.30642e-06
3.10265e-05
0.00105827
5.06622e-06
3.4281e-05
0.00111199
2.67886e-06
3.63171e-05
0.00110898
3.74548e-06
3.55716e-05
0.00111166
3.07707e-06
3.24722e-05
0.00112106
2.62261e-06
2.85448e-05
0.00113584
3.53738e-06
2.1354e-05
0.00115667
1.13177e-06
1.34723e-05
0.00112617
4.37774e-06
0.000927897
3.39685e-06
2.76624e-05
0.000743751
4.19042e-06
3.97162e-05
0.00104845
5.81822e-06
4.4175e-05
0.00110909
3.45245e-06
4.66438e-05
0.0011093
4.30517e-06
4.59973e-05
0.00111415
3.5888e-06
4.23798e-05
0.00112623
2.99719e-06
3.7247e-05
0.00114374
3.91564e-06
2.8243e-05
0.00116721
1.45225e-06
1.72256e-05
0.00113874
4.65497e-06
0.000944261
3.86851e-06
3.49449e-05
0.00070768
5.63312e-06
5.08673e-05
0.00103503
7.01102e-06
5.68477e-05
0.00110491
4.6154e-06
5.98653e-05
0.0011092
5.18291e-06
5.93822e-05
0.00111668
4.39592e-06
5.51857e-05
0.0011321
3.63023e-06
4.85538e-05
0.00115319
4.50669e-06
3.721e-05
0.00118022
1.99744e-06
2.21738e-05
0.00115536
5.10856e-06
0.000965959
4.62378e-06
4.34749e-05
0.000663827
7.82667e-06
6.48963e-05
0.00101667
8.83999e-06
7.2925e-05
0.00109912
6.31937e-06
7.6684e-05
0.00110862
6.51315e-06
7.65221e-05
0.00111925
5.6216e-06
7.17699e-05
0.0011388
4.63449e-06
6.33571e-05
0.00116457
5.40455e-06
4.89982e-05
0.00119649
2.84955e-06
2.87809e-05
0.00117736
5.82136e-06
0.000994783
5.7612e-06
5.30324e-05
0.000611641
1.0985e-05
8.20187e-05
0.000991732
1.15397e-05
9.30285e-05
0.00109113
8.73822e-06
9.7906e-05
0.0011074
8.46499e-06
9.84014e-05
0.00112175
7.41872e-06
9.32977e-05
0.00114632
6.15231e-06
8.29075e-05
0.00117826
6.7326e-06
6.47377e-05
0.00121699
4.13344e-06
3.77448e-05
0.00120655
6.91128e-06
0.00103332
7.39975e-06
6.30923e-05
0.000551187
1.52288e-05
0.000102144
0.000958306
1.53567e-05
0.000117716
0.00107989
1.20783e-05
0.000124455
0.0011052
1.12485e-05
0.000126245
0.0011239
9.98144e-06
0.000121342
0.00115447
8.35987e-06
0.000109024
0.00119452
8.64586e-06
8.61846e-05
0.0012429
6.01093e-06
5.01976e-05
0.00124552
8.54207e-06
0.00108548
9.68254e-06
7.2746e-05
0.000483204
2.03284e-05
0.000124415
0.000914416
2.043e-05
0.000147161
0.0010636
1.65871e-05
0.00015726
0.00110121
1.51058e-05
0.000161525
0.00112513
1.35176e-05
0.00015801
0.00116265
1.14378e-05
0.000144397
0.00121324
1.12942e-05
0.000116215
0.00127539
8.62584e-06
6.82229e-05
0.00129784
1.08826e-05
0.00115748
1.28129e-05
8.05666e-05
0.000409033
2.54349e-05
0.000147144
0.000858014
2.65701e-05
0.00018095
0.00103954
2.24714e-05
0.000197151
0.00109396