/*--------------------------------*- C++ -*----------------------------------*\
| =========                 |                                                 |
| \\      /  F ield         | OpenFOAM: The Open Source CFD Toolbox           |
|  \\    /   O peration     | Version:  4.1                                   |
|   \\  /    A nd           | Web:      www.OpenFOAM.org                      |
|    \\/     M anipulation  |                                                 |
\*---------------------------------------------------------------------------*/
FoamFile
{
    version     2.0;
    format      ascii;
    class       volVectorField;
    location    "400";
    object      U;
}
// * * * * * * * * * * * * * * * * * * * * * * * * * * * * * * * * * * * * * //

dimensions      [0 1 -1 0 0 0 0];

internalField   nonuniform List<vector> 
12000
(
(0.0919693 -0.00968878 0.00968414)
(0.0965667 -0.00181125 0.0106711)
(0.0959744 -0.00135404 0.0110671)
(0.0955836 -0.000559362 0.0110841)
(0.0954866 -0.000151007 0.0111126)
(0.0954868 0.000133802 0.0111126)
(0.095584 0.000543047 0.0110841)
(0.095975 0.00133869 0.0110681)
(0.0965676 0.00179593 0.0106714)
(0.0919729 0.00969325 0.00968626)
(0.0862095 -0.00379146 0.00378152)
(0.0951761 -0.00253191 0.00523634)
(0.0937597 -0.0019646 0.00566386)
(0.0926824 -0.000887132 0.00563906)
(0.0923466 -0.000279221 0.00567283)
(0.092348 0.000235968 0.00567233)
(0.0926858 0.000844064 0.005637)
(0.0937643 0.00192068 0.00565948)
(0.0951843 0.00248425 0.00523941)
(0.0862236 0.00378961 0.00379409)
(0.0822829 0.000818406 -0.000836172)
(0.0933046 -0.00254535 0.000124525)
(0.0920241 -0.00162742 0.000439129)
(0.0907946 -0.000793551 0.000445942)
(0.0903174 -0.000300586 0.000484197)
(0.0903199 0.000223924 0.000482814)
(0.0908009 0.000720549 0.000440407)
(0.0920462 0.0015513 0.000427461)
(0.0933194 0.00248009 0.000120585)
(0.0823373 -0.000833622 -0.000822938)
(0.0795755 0.00272238 -0.0027493)
(0.0911313 -0.00249069 -0.00240358)
(0.0903272 -0.00114029 -0.00233618)
(0.0893053 -0.000662433 -0.00225657)
(0.0887986 -0.000300743 -0.00220576)
(0.0888083 0.000183351 -0.00220551)
(0.0893272 0.00055344 -0.00225993)
(0.0903563 0.00103495 -0.00234961)
(0.0912277 0.00241129 -0.00237949)
(0.0796902 -0.00276121 -0.00273956)
(0.0781779 0.0031991 -0.00323722)
(0.0895843 -0.00241588 -0.0033501)
(0.0893366 -0.000766876 -0.0035682)
(0.0885353 -0.000619094 -0.00341606)
(0.0880203 -0.000311361 -0.00335413)
(0.088035 0.000142979 -0.00335353)
(0.0885736 0.000463448 -0.003415)
(0.0893894 0.000632089 -0.0035738)
(0.0896959 0.00231567 -0.00332513)
(0.0783783 -0.00327167 -0.00323815)
(0.0774201 0.00308363 -0.00313724)
(0.0885608 -0.00230678 -0.0035994)
(0.0888929 -0.000490476 -0.00404009)
(0.0882121 -0.000629295 -0.00382602)
(0.0876728 -0.000322314 -0.0037671)
(0.0876957 8.88933e-05 -0.00376453)
(0.0882709 0.00041393 -0.00382271)
(0.0889745 0.000305278 -0.00404733)
(0.0886723 0.00217269 -0.00359216)
(0.0777334 -0.00318459 -0.00313601)
(0.0767464 0.00276411 -0.00283738)
(0.0878126 -0.00219083 -0.00349818)
(0.0886915 -0.000286226 -0.00411796)
(0.0880702 -0.000658961 -0.0038321)
(0.0875198 -0.000328829 -0.00377529)
(0.0875468 1.06841e-05 -0.0037804)
(0.0881531 0.000371318 -0.00382721)
(0.0888232 3.56099e-05 -0.00410595)
(0.087984 0.0020097 -0.00347532)
(0.0772105 -0.00289862 -0.00282978)
(0.0760034 0.00239338 -0.00249359)
(0.0871226 -0.00208232 -0.00320151)
(0.0884817 -0.000158001 -0.00398221)
(0.087878 -0.000701372 -0.00361946)
(0.0873215 -0.00033807 -0.00358764)
(0.0873721 -8.73214e-05 -0.00358048)
(0.0879897 0.000322698 -0.00360904)
(0.0886683 -0.000181892 -0.0039358)
(0.0872823 0.00182377 -0.00319509)
(0.0766705 -0.00257661 -0.00248184)
(0.0752158 0.0020277 -0.0021652)
(0.0864328 -0.00198349 -0.00287338)
(0.0882695 -0.000101211 -0.00374238)
(0.0876217 -0.000768332 -0.00335292)
(0.0871083 -0.000360281 -0.00335055)
(0.0871658 -0.000200541 -0.00333349)
(0.0877755 0.000264698 -0.00333914)
(0.0885094 -0.000368903 -0.00370126)
(0.0866429 0.00162243 -0.00288564)
(0.0761553 -0.00227088 -0.00214661)
(0.07441 0.00168678 -0.00187051)
(0.0857834 -0.00189596 -0.00257359)
(0.088063 -0.000107492 -0.00346942)
(0.0873448 -0.000865815 -0.00309796)
(0.0869036 -0.000406532 -0.00310933)
(0.086961 -0.000339977 -0.00311077)
(0.0875567 0.000191779 -0.00309232)
(0.0883669 -0.000531321 -0.00348199)
(0.0860914 0.00141402 -0.00259522)
(0.0756963 -0.00200554 -0.00184609)
(0.073565 0.00137335 -0.00161509)
(0.0851378 -0.00182496 -0.00233084)
(0.08783 -0.000166078 -0.00322042)
(0.0870598 -0.000994393 -0.00287536)
(0.0867013 -0.00048506 -0.0028963)
(0.0867817 -0.000511216 -0.00291148)
(0.0873546 9.41866e-05 -0.00287202)
(0.0882583 -0.000675746 -0.00327841)
(0.0856396 0.00120306 -0.00232319)
(0.0753046 -0.00178925 -0.00158669)
(0.0726535 0.00107794 -0.00139467)
(0.0845529 -0.00179049 -0.00211902)
(0.0875651 -0.000273803 -0.00301234)
(0.086779 -0.00115743 -0.00268586)
(0.0865048 -0.000603391 -0.00271288)
(0.086631 -0.000717551 -0.00273465)
(0.0871739 -3.98057e-05 -0.00267557)
(0.0881795 -0.000817803 -0.00308574)
(0.0852443 0.000982505 -0.00209653)
(0.0749834 -0.00161784 -0.00136285)
(0.071648 0.000794089 -0.00120945)
(0.0839747 -0.00180781 -0.00193489)
(0.0872624 -0.000440162 -0.00284809)
(0.0865058 -0.00136107 -0.00251917)
(0.0863188 -0.000775208 -0.00255714)
(0.0865106 -0.000965443 -0.00258)
(0.0870295 -0.000223032 -0.00250305)
(0.0881381 -0.000987189 -0.00291942)
(0.0849319 0.000746031 -0.00193908)
(0.0747322 -0.00148146 -0.00116642)
(0.0705191 0.000511707 -0.00105662)
(0.0834059 -0.00188818 -0.00179411)
(0.0869373 -0.000668522 -0.00271853)
(0.086231 -0.00161833 -0.00237448)
(0.0861491 -0.00101697 -0.00242815)
(0.0864268 -0.00126592 -0.00244137)
(0.0869262 -0.000469702 -0.00235506)
(0.088146 -0.00120443 -0.00277914)
(0.084758 0.000490385 -0.00181875)
(0.0745673 -0.00137793 -0.000995963)
(0.0692298 0.000219793 -0.000930879)
(0.0828461 -0.00203884 -0.00167009)
(0.0865911 -0.000973454 -0.00257315)
(0.0859455 -0.00195276 -0.00224298)
(0.0859958 -0.00134797 -0.00230341)
(0.0863738 -0.00164148 -0.002309)
(0.0868762 -0.000796345 -0.00221819)
(0.0882212 -0.00147087 -0.00263687)
(0.0847277 0.000208783 -0.00168696)
(0.0745144 -0.00131357 -0.000852788)
(0.0677248 -9.63734e-05 -0.000824897)
(0.082259 -0.00228108 -0.00152993)
(0.0861837 -0.00138824 -0.00241576)
(0.0856429 -0.00239043 -0.00211886)
(0.0858444 -0.00179591 -0.00216805)
(0.0863441 -0.00211909 -0.00218415)
(0.0868828 -0.00122345 -0.00208895)
(0.0883737 -0.00179724 -0.0024901)
(0.0848395 -0.000111599 -0.00153462)
(0.0746098 -0.00128847 -0.000728673)
(0.065916 -0.000456835 -0.000727156)
(0.081589 -0.00264209 -0.00139205)
(0.0857056 -0.0019427 -0.00226007)
(0.0853154 -0.00296374 -0.0020019)
(0.0856854 -0.00239594 -0.00203851)
(0.0863462 -0.00272777 -0.00206877)
(0.0869609 -0.00177866 -0.00196731)
(0.0886234 -0.00221487 -0.00234635)
(0.0851018 -0.000490827 -0.00139096)
(0.0748864 -0.0013001 -0.000612643)
(0.0636927 -0.000878347 -0.000626892)
(0.0807853 -0.00315009 -0.00125408)
(0.0851173 -0.00267342 -0.00210289)
(0.0849445 -0.00371442 -0.00188944)
(0.0855137 -0.00318949 -0.00191137)
(0.0863825 -0.0035074 -0.00195438)
(0.0871242 -0.00250027 -0.00185075)
(0.0889932 -0.00276122 -0.00220442)
(0.0855549 -0.000953743 -0.00125987)
(0.0753826 -0.00135374 -0.000497581)
(0.0609106 -0.0013735 -0.000513233)
(0.079748 -0.00383817 -0.00110564)
(0.0843882 -0.00363269 -0.00193509)
(0.0845006 -0.00469359 -0.00177664)
(0.0853031 -0.00422794 -0.00178189)
(0.0864515 -0.00451094 -0.00183395)
(0.0873798 -0.00343837 -0.00173471)
(0.0895086 -0.00347896 -0.00205903)
(0.086233 -0.00153363 -0.00113872)
(0.0761473 -0.00146093 -0.000378181)
(0.0573936 -0.00195042 -0.000370947)
(0.0783462 -0.00474311 -0.000932564)
(0.0834723 -0.00488497 -0.00174451)
(0.0839572 -0.00596648 -0.00165262)
(0.0850432 -0.00557638 -0.00164106)
(0.0865441 -0.00580535 -0.00170282)
(0.0877499 -0.00465721 -0.0016113)
(0.0901887 -0.00442572 -0.00190536)
(0.0872037 -0.00227095 -0.00101895)
(0.0772504 -0.00163615 -0.000246741)
(0.0529311 -0.0026042 -0.000181277)
(0.0763758 -0.00589788 -0.000714097)
(0.0822973 -0.00650459 -0.00151562)
(0.0832682 -0.00761302 -0.00150381)
(0.0846911 -0.00731722 -0.00148123)
(0.0866348 -0.00747724 -0.00155004)
(0.088238 -0.00624226 -0.00147048)
(0.0910738 -0.00567763 -0.00173132)
(0.0885366 -0.00322192 -0.0008891)
(0.0787839 -0.0019022 -9.40898e-05)
(0.0472943 -0.00330487 7.71325e-05)
(0.073544 -0.00731576 -0.00042328)
(0.0807493 -0.00856527 -0.00122611)
(0.082368 -0.00972826 -0.00131137)
(0.0841986 -0.00954807 -0.00128775)
(0.0866914 -0.00963628 -0.00135976)
(0.0888467 -0.00830855 -0.00129686)
(0.0922007 -0.00734364 -0.00152373)
(0.0903235 -0.00446784 -0.000733807)
(0.0808774 -0.00229153 9.39207e-05)
(0.0402727 -0.00397462 0.000417782)
(0.0694556 -0.00895942 -3.07188e-05)
(0.0786319 -0.0111134 -0.000846249)
(0.0811528 -0.0124165 -0.00104953)
(0.0834786 -0.0123869 -0.00104021)
(0.0866391 -0.0124258 -0.0011132)
(0.0895507 -0.0110159 -0.00107234)
(0.0936031 -0.00958265 -0.00126805)
(0.0926776 -0.00612934 -0.000535506)
(0.083708 -0.00285635 0.000335632)
(0.0317524 -0.00445742 0.000828263)
(0.0636134 -0.0106838 0.000474516)
(0.0756134 -0.0141077 -0.000340228)
(0.0794466 -0.0157727 -0.000679297)
(0.0823996 -0.0159755 -0.000711809)
(0.0863569 -0.0160304 -0.000785249)
(0.0902848 -0.014586 -0.000770193)
(0.0953166 -0.0126325 -0.000939418)
(0.09575 -0.0083947 -0.00026749)
(0.0875478 -0.00367622 0.000657616)
(0.0218523 -0.00448028 0.00122591)
(0.0554963 -0.0121629 0.00105567)
(0.0710982 -0.0173228 0.000313269)
(0.0768927 -0.0198225 -0.000148072)
(0.0807286 -0.0204761 -0.000258009)
(0.0856335 -0.0206887 -0.000339802)
(0.0909069 -0.0193272 -0.000352978)
(0.0973488 -0.0168605 -0.000503451)
(0.0997485 -0.0115865 0.000105506)
(0.0927885 -0.00490558 0.00109809)
(0.0110966 -0.00359261 0.00135905)
(0.0447621 -0.012782 0.00154582)
(0.0642612 -0.0202096 0.00111135)
(0.0728446 -0.0244131 0.0006229)
(0.0780583 -0.0260601 0.000389778)
(0.0841177 -0.026726 0.000264696)
(0.091111 -0.025684 0.000222679)
(0.0995966 -0.0228449 8.79522e-05)
(0.104921 -0.0162477 0.000635116)
(0.10022 -0.0067713 0.00170552)
(0.000755874 -0.000932873 0.00131009)
(0.0313058 -0.0115886 0.00168402)
(0.0537549 -0.0218256 0.0018932)
(0.0660107 -0.0289955 0.00169184)
(0.0735795 -0.0327226 0.00136594)
(0.0812685 -0.0344912 0.00111924)
(0.090454 -0.0342468 0.00101282)
(0.101875 -0.031505 0.000888929)
(0.111661 -0.0234701 0.00139536)
(0.110897 -0.00998243 0.00258225)
(-0.00335802 0.00234625 0.00208499)
(0.0173149 -0.00757454 0.00224689)
(0.0391256 -0.0208022 0.00288538)
(0.0548204 -0.0325416 0.00303853)
(0.0658219 -0.0401962 0.00272692)
(0.0759299 -0.0444354 0.0023225)
(0.087772 -0.0459162 0.002099)
(0.103206 -0.0442545 0.00196018)
(0.119684 -0.0352844 0.00245761)
(0.128704 -0.0151731 0.00380798)
(-0.00654861 0.000170381 0.000826024)
(-0.00127907 -0.00481085 0.00230302)
(0.0177215 -0.0166269 0.00436647)
(0.0366666 -0.0320498 0.00526166)
(0.0523997 -0.0456469 0.00496825)
(0.0666481 -0.0554892 0.00421695)
(0.0822398 -0.0614634 0.00364667)
(0.103209 -0.0633391 0.00337925)
(0.129112 -0.0563075 0.00394094)
(0.155944 -0.0283766 0.00560167)
(-0.0129798 -0.00436039 -0.00184692)
(-0.0159608 -0.0140695 -0.0021971)
(-0.00577544 -0.0230703 0.000561148)
(0.0102905 -0.0335304 0.00434515)
(0.0278082 -0.047807 0.00655772)
(0.0463854 -0.0636942 0.00686088)
(0.0661285 -0.0792789 0.00617852)
(0.0953563 -0.0893405 0.00545806)
(0.128464 -0.101044 0.00561524)
(0.217198 -0.0470885 0.00797924)
(0.0965635 -0.0106753 0.00180423)
(0.101353 -0.00136324 0.00135776)
(0.10093 -0.00122142 0.00146892)
(0.100654 -0.000460267 0.00144364)
(0.100611 -0.000113844 0.0014573)
(0.100611 0.00010083 0.0014573)
(0.100655 0.000448349 0.00144346)
(0.100932 0.00121149 0.0014677)
(0.10136 0.00135339 0.00135857)
(0.0965666 0.0107345 0.0018106)
(0.0951642 -0.00524504 0.00251641)
(0.108516 -0.00240791 0.00239426)
(0.106225 -0.00200124 0.00248233)
(0.105026 -0.00079276 0.00243411)
(0.104788 -0.000245892 0.00246876)
(0.104788 0.000207556 0.0024677)
(0.105027 0.00075911 0.00242905)
(0.106235 0.00196455 0.00247948)
(0.108524 0.00234781 0.00238201)
(0.0951649 0.00529262 0.00251872)
(0.0932801 -0.000139834 0.00251723)
(0.111461 -0.00293653 0.00290976)
(0.109124 -0.00171436 0.00285246)
(0.107508 -0.000688316 0.00279211)
(0.107135 -0.000283243 0.00283228)
(0.10714 0.000208858 0.00283277)
(0.107525 0.000623068 0.0027901)
(0.109121 0.00165363 0.00284358)
(0.111447 0.00290328 0.00293761)
(0.0933289 0.00015779 0.00251557)
(0.0910853 0.00238023 0.00244821)
(0.111014 -0.00317816 0.00314036)
(0.109798 -0.00125795 0.0030519)
(0.108247 -0.000563441 0.0030122)
(0.107857 -0.000302525 0.00305847)
(0.107861 0.000190033 0.00305868)
(0.108268 0.000457392 0.00301199)
(0.109823 0.00117129 0.00304045)
(0.11084 0.00309557 0.00313578)
(0.0912586 -0.00238674 0.00244658)
(0.089507 0.00331543 0.00235785)
(0.109806 -0.00319892 0.00314752)
(0.109684 -0.000858211 0.00315521)
(0.108341 -0.000540098 0.00317118)
(0.107948 -0.000329735 0.00322417)
(0.107956 0.000168871 0.00322275)
(0.108374 0.000387046 0.00316954)
(0.109723 0.000726052 0.00315233)
(0.109672 0.00304347 0.003096)
(0.0897599 -0.00338048 0.00235536)
(0.088438 0.00354951 0.00222746)
(0.108842 -0.0031945 0.00312424)
(0.109528 -0.000527969 0.00316777)
(0.108361 -0.000586821 0.00325062)
(0.107939 -0.00034718 0.00329729)
(0.107952 0.000126059 0.00329382)
(0.108412 0.000382885 0.00324952)
(0.109589 0.000347699 0.00317633)
(0.108787 0.0030307 0.00310046)
(0.0887816 -0.00367152 0.00222592)
(0.0876234 0.00342796 0.00208784)
(0.107941 -0.00316609 0.00307361)
(0.109338 -0.000294738 0.00308995)
(0.108312 -0.000662234 0.00322473)
(0.107852 -0.000346211 0.00323724)
(0.107877 4.95187e-05 0.00324151)
(0.108389 0.000391839 0.0032234)
(0.109422 5.55663e-05 0.00309775)
(0.10789 0.00292834 0.00302653)
(0.0881541 -0.00357033 0.00209274)
(0.0868441 0.0031024 0.00193851)
(0.10713 -0.00307758 0.00294743)
(0.10915 -0.000143749 0.00298527)
(0.108251 -0.000758358 0.0031401)
(0.107787 -0.000338634 0.00312571)
(0.107809 -5.35015e-05 0.00312166)
(0.108368 0.000398647 0.00313911)
(0.109282 -0.000184905 0.00297511)
(0.107243 0.00278654 0.00289858)
(0.0875332 -0.00331498 0.00194586)
(0.0860371 0.00273898 0.0017813)
(0.106519 -0.002988 0.00282429)
(0.108947 -6.38461e-05 0.00287124)
(0.108215 -0.000876266 0.0030554)
(0.107736 -0.000336943 0.00301901)
(0.107777 -0.00018335 0.00299778)
(0.10838 0.000406504 0.0030564)
(0.109174 -0.000378779 0.0028445)
(0.106736 0.00267207 0.00281216)
(0.0869937 -0.00303885 0.00178566)
(0.0852381 0.00239785 0.00162836)
(0.106048 -0.00290916 0.00269706)
(0.108761 -4.32981e-05 0.00272711)
(0.108201 -0.00101093 0.00297296)
(0.1077 -0.000350036 0.00289775)
(0.107784 -0.000338002 0.00288391)
(0.108427 0.000400788 0.00298141)
(0.109132 -0.000545485 0.00271946)
(0.106334 0.00255046 0.00273029)
(0.0865693 -0.00278182 0.00162448)
(0.0843916 0.00210361 0.0014767)
(0.105715 -0.00288924 0.00260339)
(0.108624 -6.74103e-05 0.00257734)
(0.1082 -0.00116334 0.00289081)
(0.107691 -0.000385065 0.00276717)
(0.107808 -0.000517101 0.00276912)
(0.108497 0.000364644 0.00290019)
(0.109134 -0.000698753 0.00259876)
(0.105994 0.00237579 0.0026152)
(0.0862779 -0.00254604 0.00147848)
(0.0835405 0.00182486 0.00133573)
(0.105365 -0.0028907 0.00250494)
(0.10851 -0.000141651 0.00244007)
(0.108187 -0.00133916 0.00280728)
(0.107697 -0.00045369 0.0026401)
(0.107841 -0.000725115 0.00264876)
(0.108585 0.000289354 0.00281229)
(0.109177 -0.000862177 0.00247654)
(0.105774 0.00216951 0.00248036)
(0.0860746 -0.00236263 0.00135022)
(0.0826094 0.00155219 0.0012031)
(0.105036 -0.00290548 0.00238805)
(0.108405 -0.000265987 0.00233137)
(0.108146 -0.0015455 0.00271619)
(0.107706 -0.000568735 0.00252778)
(0.107876 -0.000968536 0.00253294)
(0.10868 0.000171618 0.00272208)
(0.10926 -0.00103858 0.00236084)
(0.105641 0.00198553 0.00238687)
(0.0859816 -0.00225463 0.00123223)
(0.081587 0.00129594 0.0010743)
(0.104678 -0.00297736 0.00229461)
(0.108265 -0.000465381 0.00224833)
(0.10808 -0.00179711 0.00262157)
(0.107702 -0.000747288 0.00243191)
(0.107912 -0.00125666 0.00242178)
(0.108789 1.12164e-06 0.00263616)
(0.10938 -0.00122873 0.00225691)
(0.105508 0.00179302 0.00231284)
(0.0860577 -0.00219435 0.00112757)
(0.0804516 0.0010265 0.00095686)
(0.104233 -0.00310272 0.00220822)
(0.108062 -0.000752951 0.00215897)
(0.107992 -0.00210831 0.00253074)
(0.107683 -0.00100997 0.00234036)
(0.107958 -0.00160176 0.00231226)
(0.108922 -0.000244551 0.00255164)
(0.109537 -0.00145095 0.00215953)
(0.105419 0.00153946 0.00221523)
(0.0862874 -0.00213084 0.00104458)
(0.0791355 0.000703002 0.000860028)
(0.103692 -0.00327794 0.00210649)
(0.107813 -0.00113133 0.00207283)
(0.10788 -0.00249755 0.00244905)
(0.107661 -0.0013762 0.00225279)
(0.108031 -0.00202478 0.00221451)
(0.109097 -0.000585109 0.00247118)
(0.109749 -0.00173076 0.00207214)
(0.105448 0.00121452 0.00209844)
(0.0866591 -0.00205565 0.000983367)
(0.0775513 0.000336537 0.000784833)
(0.103068 -0.00353592 0.00200863)
(0.107497 -0.00162598 0.00200565)
(0.107736 -0.00299397 0.00237731)
(0.107642 -0.00187254 0.00218288)
(0.108132 -0.00255201 0.0021345)
(0.109324 -0.00104176 0.00239987)
(0.110036 -0.00209057 0.00200021)
(0.105653 0.000829666 0.00199323)
(0.0871961 -0.00200635 0.000942323)
(0.0756277 -8.09498e-05 0.000738596)
(0.102303 -0.00390798 0.001929)
(0.107112 -0.00227332 0.00196268)
(0.107554 -0.00363245 0.00231765)
(0.107621 -0.00253411 0.00213019)
(0.108265 -0.00321622 0.002073)
(0.109616 -0.00164458 0.00233635)
(0.110428 -0.00255445 0.00194866)
(0.106057 0.000369235 0.00190665)
(0.0879507 -0.00199773 0.000925931)
(0.0732543 -0.000561939 0.00073346)
(0.101361 -0.00442343 0.00187752)
(0.106641 -0.00311514 0.00195112)
(0.107333 -0.00445713 0.00228158)
(0.107608 -0.00340528 0.00210463)
(0.108442 -0.00406075 0.00203308)
(0.110003 -0.00243401 0.00229105)
(0.11096 -0.00315983 0.00191424)
(0.106722 -0.000190186 0.00184601)
(0.0889784 -0.00203962 0.000937948)
(0.0703225 -0.00111754 0.000787024)
(0.100158 -0.00511822 0.00187165)
(0.106067 -0.00420368 0.00197632)
(0.107063 -0.00552113 0.00227987)
(0.107598 -0.0045433 0.00211305)
(0.108677 -0.00514035 0.00201988)
(0.110502 -0.00346574 0.00226965)
(0.111689 -0.00395305 0.00190842)
(0.107697 -0.000880394 0.00182092)
(0.0903737 -0.00214374 0.000985624)
(0.0666997 -0.0017539 0.000922952)
(0.0985891 -0.00602553 0.00193326)
(0.105366 -0.00560039 0.00205171)
(0.106736 -0.00689155 0.00232367)
(0.107598 -0.00601654 0.00216712)
(0.10899 -0.0065299 0.00204982)
(0.111152 -0.00481226 0.00228184)
(0.112668 -0.00499916 0.00194345)
(0.10907 -0.00175427 0.00183892)
(0.0922531 -0.00232443 0.00108191)
(0.0622407 -0.00246641 0.00117036)
(0.096503 -0.00717661 0.00209584)
(0.1045 -0.00737422 0.00220072)
(0.10634 -0.00864988 0.0024311)
(0.107597 -0.00791264 0.00228556)
(0.109388 -0.0083264 0.00213977)
(0.111987 -0.00657517 0.00234303)
(0.113974 -0.00639144 0.00202626)
(0.110953 -0.00288113 0.00191515)
(0.0947774 -0.00260955 0.00124511)
(0.0567988 -0.00322822 0.00155473)
(0.093689 -0.00857415 0.00239193)
(0.103396 -0.00958949 0.00245685)
(0.105852 -0.0108931 0.00262849)
(0.107579 -0.0103392 0.0024924)
(0.109878 -0.0106596 0.00231402)
(0.113046 -0.00889379 0.00247675)
(0.115705 -0.00826849 0.00218298)
(0.113512 -0.00436439 0.00207343)
(0.0981697 -0.00304056 0.00150171)
(0.0502143 -0.00396027 0.00207797)
(0.0898686 -0.0101796 0.00285208)
(0.101911 -0.0122776 0.00285355)
(0.105224 -0.0137293 0.00295135)
(0.1075 -0.0134303 0.00281997)
(0.110437 -0.0137022 0.00260554)
(0.114357 -0.0119669 0.00271478)
(0.117969 -0.0108408 0.00244677)
(0.116968 -0.00637106 0.00234786)
(0.102763 -0.00368953 0.00188974)
(0.0423747 -0.00450891 0.00267156)
(0.0846324 -0.0118582 0.0034668)
(0.0997773 -0.0153965 0.00343792)
(0.104348 -0.0172643 0.0034525)
(0.107281 -0.0173492 0.00331085)
(0.111008 -0.0176833 0.00305726)
(0.115927 -0.016078 0.00309861)
(0.120891 -0.0144394 0.00285867)
(0.121644 -0.00918582 0.00278887)
(0.109046 -0.00469196 0.0024665)
(0.0332831 -0.00459869 0.00313727)
(0.0775072 -0.0133056 0.00415454)
(0.0965101 -0.018743 0.00424738)
(0.102987 -0.0215685 0.00422258)
(0.106774 -0.0223098 0.00403748)
(0.111446 -0.022919 0.00373086)
(0.11768 -0.0216458 0.00368783)
(0.124558 -0.0195958 0.00347502)
(0.127957 -0.0132997 0.00346389)
(0.11793 -0.00623938 0.00331374)
(0.0232251 -0.00385387 0.00317348)
(0.067881 -0.0139863 0.00464568)
(0.0912533 -0.021857 0.00527038)
(0.100638 -0.0265496 0.00537264)
(0.105731 -0.0285303 0.00511378)
(0.111534 -0.0298162 0.00470193)
(0.119464 -0.0292666 0.00454825)
(0.129034 -0.0271895 0.0043631)
(0.13656 -0.0196959 0.00447729)
(0.130663 -0.00903702 0.00455573)
(0.0139615 -0.00176239 0.00330307)
(0.0560588 -0.0131667 0.00515725)
(0.0830945 -0.0240674 0.00654503)
(0.0964027 -0.0319276 0.00698395)
(0.103592 -0.0362051 0.00663143)
(0.110747 -0.0388891 0.00602701)
(0.120673 -0.0397719 0.00570839)
(0.133902 -0.0385896 0.00554338)
(0.147671 -0.0303453 0.00588853)
(0.151305 -0.0134652 0.00634939)
(0.00804821 -0.000246733 0.00356095)
(0.0423713 -0.01079 0.00603553)
(0.0711 -0.0241295 0.00817609)
(0.0889819 -0.036321 0.00915467)
(0.0996835 -0.04482 0.00872633)
(0.108852 -0.0505895 0.0077744)
(0.120969 -0.0542374 0.00717394)
(0.138954 -0.0558587 0.00699816)
(0.161797 -0.0491339 0.00782477)
(0.182715 -0.0255295 0.00891652)
(0.00489801 -0.00262984 0.000726106)
(0.0292799 -0.0110324 0.00499302)
(0.0561739 -0.0244171 0.00832436)
(0.0768208 -0.0389736 0.01016)
(0.0913419 -0.0521039 0.0101913)
(0.103553 -0.0633406 0.00911951)
(0.117203 -0.0734822 0.00814843)
(0.141265 -0.0808995 0.00786203)
(0.170366 -0.0897103 0.00924623)
(0.247569 -0.0416474 0.0121077)
(0.095972 -0.0110713 0.0013464)
(0.100931 -0.00147395 0.00121549)
(0.100649 -0.00116565 0.00116018)
(0.100407 -0.000459108 0.00117214)
(0.100366 -0.00011341 0.00117773)
(0.100366 0.000101528 0.00117766)
(0.100408 0.00044869 0.00117186)
(0.100651 0.00115723 0.00115969)
(0.100935 0.00146715 0.00121603)
(0.0959737 0.0111513 0.00134858)
(0.0937486 -0.00567228 0.00194599)
(0.10623 -0.00249903 0.00198325)
(0.103706 -0.00192091 0.0019054)
(0.102529 -0.000790203 0.00193452)
(0.102291 -0.000239727 0.00194354)
(0.102293 0.000206055 0.00194315)
(0.102534 0.000760813 0.00193294)
(0.103716 0.00188849 0.00190361)
(0.106247 0.00243699 0.00198323)
(0.0937404 0.00571708 0.00194434)
(0.0920074 -0.000455196 0.00159527)
(0.109112 -0.00287436 0.00168429)
(0.10611 -0.00162912 0.00160053)
(0.104456 -0.000655129 0.0016235)
(0.104104 -0.00027155 0.00163228)
(0.104108 0.000201352 0.00163243)
(0.104466 0.000590057 0.00162292)
(0.106123 0.00156831 0.00160279)
(0.109105 0.00281782 0.00168726)
(0.0920601 0.000460814 0.00158458)
(0.0902773 0.00231917 0.00109142)
(0.109798 -0.00308238 0.00121405)
(0.10717 -0.00112684 0.00108233)
(0.105544 -0.000503349 0.00109918)
(0.105187 -0.0002907 0.00110901)
(0.105195 0.0001795 0.00110934)
(0.105565 0.000399401 0.00109947)
(0.107196 0.00103115 0.00108265)
(0.109789 0.00300674 0.00122042)
(0.0904057 -0.00235152 0.00108467)
(0.0892506 0.0035454 0.000697238)
(0.109693 -0.00321056 0.000792194)
(0.107667 -0.000681775 0.000616187)
(0.106183 -0.0004872 0.000645724)
(0.10582 -0.000324241 0.000663132)
(0.105833 0.000162745 0.000663502)
(0.106218 0.000337104 0.000645268)
(0.107705 0.000542434 0.000612921)
(0.109683 0.00310646 0.000794986)
(0.0894728 -0.00363223 0.000703336)
(0.0887718 0.0040041 0.000391702)
(0.109527 -0.00323548 0.000437827)
(0.108176 -0.000305373 0.000214183)
(0.106784 -0.000549974 0.000257715)
(0.106376 -0.000345698 0.000279259)
(0.106394 0.000123327 0.000279857)
(0.106837 0.000347562 0.000257467)
(0.108233 0.000117443 0.00021236)
(0.109533 0.003091 0.000442718)
(0.0891126 -0.00412664 0.00040209)
(0.0884954 0.00406218 0.000156765)
(0.109355 -0.00320203 0.000169265)
(0.108747 -9.11203e-06 -0.000118054)
(0.107405 -0.000640987 -5.98216e-05)
(0.106944 -0.000342219 -4.51314e-05)
(0.106971 4.46077e-05 -4.35442e-05)
(0.107483 0.000372263 -5.88595e-05)
(0.108835 -0.000243428 -0.000118715)
(0.1094 0.00302482 0.000174649)
(0.0889825 -0.00422719 0.000166519)
(0.088245 0.00386087 -1.10116e-05)
(0.109117 -0.00309716 -1.98448e-05)
(0.109267 0.000203548 -0.000375792)
(0.107958 -0.000745781 -0.000302334)
(0.107464 -0.000324466 -0.00030353)
(0.107504 -7.08372e-05 -0.000299598)
(0.108068 0.000392085 -0.000300585)
(0.109397 -0.000534591 -0.000378873)
(0.109204 0.00287508 -1.9766e-05)
(0.0889386 -0.0040688 -7.39987e-06)
(0.0879048 0.00359719 -0.000128456)
(0.10894 -0.00299844 -0.000161535)
(0.109701 0.00034398 -0.000564593)
(0.108417 -0.00086547 -0.000479049)
(0.107913 -0.000307407 -0.000493672)
(0.107965 -0.000215079 -0.00049361)
(0.108569 0.0004045 -0.00047715)
(0.109885 -0.000777735 -0.000574533)
(0.109085 0.00269641 -0.000157674)
(0.0888565 -0.00383368 -0.000137929)
(0.0875438 0.00331296 -0.000202754)
(0.108784 -0.00292632 -0.000263238)
(0.110079 0.000416871 -0.000706356)
(0.108816 -0.00100128 -0.000605131)
(0.108318 -0.000301588 -0.000633105)
(0.108384 -0.000381692 -0.000639295)
(0.109022 0.00040208 -0.00060323)
(0.110337 -0.000992968 -0.000725086)
(0.109035 0.00250335 -0.00025239)
(0.0888088 -0.00359244 -0.000227959)
(0.0871467 0.00303612 -0.00025101)
(0.108646 -0.00285631 -0.000336545)
(0.110422 0.000430988 -0.000815589)
(0.10918 -0.0011519 -0.000695801)
(0.108698 -0.000317053 -0.000739726)
(0.108787 -0.000572033 -0.000748602)
(0.109458 0.00037334 -0.000693197)
(0.110785 -0.00119826 -0.000846802)
(0.109079 0.00230987 -0.000322484)
(0.0887761 -0.00339737 -0.000279729)
(0.0866687 0.00278339 -0.00028887)
(0.108524 -0.00281871 -0.000382339)
(0.110726 0.00038959 -0.00089729)
(0.109512 -0.00132468 -0.000758103)
(0.109054 -0.000366013 -0.000821138)
(0.109176 -0.000790545 -0.000830424)
(0.10988 0.000310392 -0.000756611)
(0.111229 -0.00139925 -0.000944832)
(0.109179 0.00211978 -0.000377846)
(0.0887921 -0.00323768 -0.000305142)
(0.0861186 0.00252743 -0.000312115)
(0.108376 -0.00281755 -0.000410464)
(0.110987 0.000291373 -0.000957846)
(0.109809 -0.00152857 -0.000798041)
(0.109388 -0.000460237 -0.000880376)
(0.109551 -0.0010435 -0.000890153)
(0.110294 0.000203988 -0.000797866)
(0.111676 -0.00160004 -0.0010159)
(0.109331 0.00190852 -0.000414104)
(0.0888705 -0.00310343 -0.000325818)
(0.0854562 0.00226157 -0.000324919)
(0.108194 -0.00285144 -0.000420925)
(0.1112 0.000127556 -0.000992626)
(0.11007 -0.00177454 -0.000820597)
(0.109702 -0.000614478 -0.00091827)
(0.109918 -0.00133962 -0.000930714)
(0.110708 4.50374e-05 -0.000820688)
(0.112137 -0.00181266 -0.00106275)
(0.109549 0.00168141 -0.000424839)
(0.0890248 -0.0030032 -0.000346598)
(0.0846349 0.00197638 -0.000331237)
(0.107972 -0.00294379 -0.000410036)
(0.111362 -0.000116118 -0.00100427)
(0.110299 -0.0020767 -0.000828519)
(0.11 -0.000847195 -0.000937544)
(0.110281 -0.00169 -0.000957218)
(0.111134 -0.000180643 -0.000828738)
(0.112625 -0.0020547 -0.00109552)
(0.109827 0.00143142 -0.000419093)
(0.0892914 -0.00292048 -0.000350886)
(0.0836057 0.00165185 -0.000320394)
(0.107689 -0.00310769 -0.000384122)
(0.111462 -0.000452649 -0.00100228)
(0.110495 -0.0024535 -0.000824096)
(0.11028 -0.00117836 -0.000943044)
(0.110649 -0.00211176 -0.000972278)
(0.111584 -0.000493729 -0.000826278)
(0.113154 -0.0023477 -0.00111927)
(0.11018 0.00113865 -0.000408903)
(0.0896948 -0.00284565 -0.000332636)
(0.08231 0.00128083 -0.000291403)
(0.107323 -0.00335118 -0.000344481)
(0.111493 -0.000905288 -0.000981415)
(0.110657 -0.0029284 -0.00080606)
(0.110543 -0.00163325 -0.000934136)
(0.111029 -0.00262861 -0.000972888)
(0.11207 -0.000917366 -0.000813055)
(0.113741 -0.00270996 -0.00112987)
(0.110647 0.000789778 -0.000396608)
(0.0902651 -0.00279261 -0.000299009)
(0.0806658 0.000859306 -0.000240341)
(0.106855 -0.00370011 -0.000284224)
(0.111447 -0.00150498 -0.000936611)
(0.110783 -0.00353285 -0.000772986)
(0.110797 -0.00224515 -0.000907119)
(0.111431 -0.00327085 -0.000957756)
(0.112611 -0.00147906 -0.000787841)
(0.114414 -0.00316373 -0.00112486)
(0.111268 0.000372041 -0.000377857)
(0.0910466 -0.00277401 -0.000251813)
(0.0785932 0.000375475 -0.000155333)
(0.106238 -0.00418315 -0.000195667)
(0.111313 -0.00229003 -0.000861604)
(0.110872 -0.00430526 -0.000720204)
(0.111045 -0.00305587 -0.000859307)
(0.111868 -0.00407797 -0.000924655)
(0.113231 -0.00221683 -0.000749281)
(0.115204 -0.0037401 -0.00110112)
(0.112091 -0.000141126 -0.000350283)
(0.0921055 -0.00279489 -0.000189715)
(0.0759927 -0.000181664 -2.28042e-05)
(0.105409 -0.00482682 -6.53328e-05)
(0.111081 -0.00330632 -0.000746235)
(0.110924 -0.00529226 -0.000639505)
(0.111292 -0.00411626 -0.000783172)
(0.112354 -0.0051007 -0.000868028)
(0.113954 -0.00318185 -0.000691565)
(0.116155 -0.00448298 -0.00105556)
(0.113178 -0.000786726 -0.000310019)
(0.0935192 -0.00286823 -0.000107855)
(0.0727617 -0.00081884 0.000179039)
(0.104279 -0.00565728 0.000124934)
(0.110734 -0.00460683 -0.000576248)
(0.110936 -0.00654968 -0.000519208)
(0.111542 -0.00548744 -0.000669308)
(0.112903 -0.00640421 -0.000779009)
(0.114815 -0.00444138 -0.000607638)
(0.117321 -0.0054525 -0.000981002)
(0.114617 -0.00160729 -0.000250748)
(0.0953964 -0.00300862 3.91664e-06)
(0.068794 -0.00152982 0.00047694)
(0.102733 -0.0066963 0.000401481)
(0.110248 -0.00624815 -0.000330631)
(0.110904 -0.00814483 -0.000342006)
(0.111798 -0.0072437 -0.00050228)
(0.11353 -0.00807381 -0.000643591)
(0.115849 -0.00608593 -0.000485834)
(0.118769 -0.00673277 -0.000867032)
(0.116522 -0.00266495 -0.000161756)
(0.0978872 -0.00324294 0.000158326)
(0.0640155 -0.00229105 0.000901897)
(0.10062 -0.00794252 0.000796114)
(0.109578 -0.00827662 1.84484e-05)
(0.110818 -0.0101528 -8.36723e-05)
(0.112054 -0.00947236 -0.000261564)
(0.114242 -0.0102194 -0.000442735)
(0.117097 -0.00823881 -0.000310056)
(0.120591 -0.0084475 -0.000698009)
(0.119048 -0.00405534 -2.78041e-05)
(0.101207 -0.00360789 0.000371518)
(0.0583807 -0.0030427 0.00147694)
(0.0977617 -0.00936945 0.00134629)
(0.108653 -0.0107157 0.000505828)
(0.110657 -0.0126559 0.000289362)
(0.112292 -0.0122761 8.18687e-05)
(0.115031 -0.0129843 -0.000149505)