/*--------------------------------*- C++ -*----------------------------------*\
| =========                 |                                                 |
| \\      /  F ield         | OpenFOAM: The Open Source CFD Toolbox           |
|  \\    /   O peration     | Version:  4.1                                   |
|   \\  /    A nd           | Web:      www.OpenFOAM.org                      |
|    \\/     M anipulation  |                                                 |
\*---------------------------------------------------------------------------*/
FoamFile
{
    version     2.0;
    format      ascii;
    class       volScalarField;
    location    "55";
    object      T;
}
// * * * * * * * * * * * * * * * * * * * * * * * * * * * * * * * * * * * * * //

dimensions      [0 0 0 1 0 0 0];

internalField   nonuniform List<scalar> 
12000
(
0.999583
1.00358
0.999807
1.00054
1.00055
1.00055
1.00053
0.999806
1.00359
0.999558
0.994979
0.996274
0.99554
0.996991
0.997021
0.997014
0.996979
0.995539
0.996307
0.994933
0.999372
0.994202
0.997396
0.998257
0.998158
0.998157
0.99825
0.997414
0.994232
0.999302
1.00385
0.995572
1.00083
1.00049
1.00029
1.00027
1.00049
1.00085
0.995559
1.00374
1.00496
0.996286
1.00237
1.00118
1.00117
1.00107
1.00118
1.00239
0.996229
1.00482
1.00441
0.996219
1.0025
1.00085
1.00118
1.00107
1.00085
1.00249
0.996172
1.00422
1.00371
0.996265
1.00232
1.00037
1.00095
1.00093
1.00035
1.00228
0.996254
1.00349
1.00314
0.996555
1.00213
0.999988
1.00075
1.00079
0.999952
1.00208
0.996575
1.00289
1.00259
0.996881
1.00191
0.99966
1.00054
1.00062
0.99961
1.00184
0.996917
1.0023
1.00207
0.99716
1.00163
0.999359
1.00033
1.00042
0.999308
1.00154
0.997194
1.00174
1.00165
0.997366
1.00133
0.999138
1.00013
1.00023
0.999061
1.00125
0.997404
1.00126
1.00134
0.997539
1.00109
0.999001
0.999973
1.00008
0.998886
1.001
0.997575
1.00089
1.00115
0.997735
1.00089
0.998926
0.999858
0.999973
0.998792
1.0008
0.99773
1.00062
1.00106
0.997916
1.00072
0.998898
0.999776
0.999897
0.998752
1.00063
0.997866
1.0004
1.00103
0.998082
1.0006
0.998904
0.999722
0.999846
0.998747
1.00049
0.997983
1.00021
1.00109
0.998242
1.00051
0.998933
0.999684
0.999813
0.998765
1.00037
0.998081
1.00004
1.00121
0.998394
1.00041
0.998974
0.999655
0.999791
0.998793
1.00027
0.998153
0.999891
1.00138
0.998544
1.0003
0.99901
0.999626
0.999771
0.998824
1.00017
0.998191
0.999741
1.00155
0.998704
1.00015
0.999024
0.999588
0.999749
0.998854
1.00008
0.99819
0.99958
1.00166
0.998888
0.99991
0.998993
0.999528
0.999724
0.998875
0.999987
0.998142
0.999391
1.00153
0.999038
0.999509
0.998862
0.999413
0.999679
0.998874
0.999891
0.998031
0.999139
1.00086
0.999003
0.99884
0.998529
0.999184
0.999576
0.998833
0.999758
0.997824
0.998767
0.999091
0.998452
0.997691
0.997798
0.998707
0.999326
0.998712
0.999551
0.997467
0.99817
0.995305
0.99666
0.995687
0.996313
0.997696
0.998736
0.998401
0.999209
0.996869
0.997168
0.988018
0.992111
0.99196
0.993359
0.995558
0.997404
0.997684
0.998646
0.995912
0.995344
0.974493
0.982096
0.984808
0.987633
0.991172
0.994475
0.99602
0.997631
0.994503
0.992139
0.948773
0.961951
0.970937
0.976708
0.982613
0.98849
0.992512
0.995929
0.993091
0.985887
0.915556
0.935017
0.948882
0.957852
0.966964
0.976487
0.984528
0.991705
0.993428
0.977893
0.873135
0.89586
0.913773
0.926845
0.940811
0.955468
0.970167
0.983344
1.0025
0.968206
0.808116
0.827552
0.853022
0.875049
0.895111
0.913433
0.934863
0.950794
1.02172
1.01749
1.00359
1.00675
1.00301
1.00391
1.00387
1.00387
1.00391
1.00301
1.00679
1.00354
0.996298
0.996863
0.996392
0.998265
0.998221
0.998219
0.99825
0.996387
0.996959
0.99624
0.994235
0.98974
0.992956
0.993843
0.993639
0.993629
0.993825
0.99297
0.989826
0.994131
0.995617
0.987826
0.993448
0.992816
0.99245
0.99245
0.992795
0.993474
0.987908
0.995468
0.996341
0.987434
0.994339
0.992674
0.992441
0.9925
0.992655
0.994363
0.987536
0.996151
0.996289
0.987518
0.994654
0.992459
0.992628
0.99271
0.992431
0.994667
0.987594
0.9961
0.996358
0.988187
0.994891
0.992425
0.993037
0.993084
0.992388
0.99489
0.988212
0.996184
0.996678
0.989333
0.995352
0.992735
0.993674
0.993692
0.992686
0.995321
0.989298
0.996499
0.997045
0.990586
0.995894
0.993256
0.994387
0.9944
0.993187
0.995845
0.990507
0.99683
0.997378
0.991702
0.996375
0.993817
0.995042
0.995064
0.993723
0.996304
0.991602
0.99708
0.997652
0.992688
0.996782
0.994346
0.995602
0.995639
0.994241
0.996683
0.992565
0.997256
0.997908
0.993575
0.997127
0.99485
0.996082
0.996134
0.994738
0.997002
0.993416
0.997403
0.998213
0.994323
0.997431
0.995335
0.996498
0.996567
0.995203
0.997282
0.994137
0.99754
0.998528
0.994963
0.997707
0.995795
0.99686
0.996948
0.995636
0.997533
0.994745
0.997657
0.998851
0.995525
0.997939
0.996219
0.997174
0.997281
0.996033
0.997748
0.995244
0.997773
0.999188
0.996018
0.998136
0.996604
0.997443
0.997569
0.996393
0.99793
0.995638
0.997889
0.999523
0.996463
0.998299
0.996944
0.997671
0.997816
0.996714
0.998089
0.995951
0.997964
0.999829
0.996868
0.998418
0.99723
0.997855
0.998022
0.996991
0.998224
0.996187
0.997976
1.00007
0.997222
0.998463
0.997446
0.997987
0.998182
0.997215
0.998323
0.99634
0.99791
1.0002
0.997489
0.998382
0.997558
0.998048
0.99828
0.997377
0.998366
0.996392
0.997749
1.00003
0.997625
0.998115
0.997516
0.998004
0.998294
0.997457
0.998326
0.996313
0.997451
0.9993
0.997515
0.997567
0.997228
0.997791
0.998176
0.99742
0.998173
0.996051
0.996948
0.997604
0.996886
0.99655
0.99654
0.997289
0.997845
0.99721
0.997857
0.995532
0.996116
0.994261
0.995214
0.994732
0.995146
0.996254
0.997128
0.996722
0.997297
0.994639
0.994751
0.988009
0.991434
0.991435
0.992478
0.994226
0.995707
0.995773
0.996396
0.993216
0.992417
0.976537
0.983461
0.985301
0.987456
0.990302
0.992912
0.993935
0.994979
0.991153
0.988544
0.95603
0.967629
0.973719
0.978181
0.982988
0.987614
0.990511
0.992884
0.988761
0.981404
0.924943
0.941941
0.953854
0.961914
0.969709
0.977385
0.98346
0.988846
0.987913
0.972203
0.879773
0.90227
0.921139
0.934934
0.94741
0.959343
0.970736
0.980915
0.994433
0.959691
0.819727
0.842539
0.867197
0.889186
0.908315
0.924673
0.942429
0.954931
1.01433
0.998707
0.999819
1.00301
0.998896
0.999618
0.999577
0.999576
0.999614
0.998897
1.00306
0.999753
0.99557
0.996402
0.996001
0.997902
0.997907
0.9979
0.997879
0.995984
0.996495
0.9955
0.997443
0.992971
0.996511
0.997542
0.997367
0.997353
0.997516
0.99653
0.993067
0.997308
1.00089
0.993464
0.999434
0.998786
0.998441
0.998433
0.998761
0.999463
0.993525
1.00074
1.00244
0.994355
1.00165
0.999837
0.999727
0.999735
0.999809
1.00167
0.99438
1.00229
1.00257
0.99467
1.00229
0.999948
1.00038
1.00037
0.999917
1.0023
0.994659
1.00242
1.0024
0.994905
1.00219
0.999594
1.00053
1.00051
0.999563
1.00219
0.994866
1.00223
1.00224
0.995355
1.00201
0.999271
1.00055
1.00052
0.999243
1.002
0.995288
1.00204
1.00203
0.995889
1.00186
0.999087
1.00056
1.00054
0.999051
1.00184
0.995787
1.00183
1.00176
0.996361
1.00167
0.998965
1.00052
1.00052
0.998912
1.00163
0.996239
1.00152
1.00151
0.996752
1.00144
0.998861
1.00043
1.00045
0.998795
1.00139
0.996621
1.00119
1.00132
0.99708
1.0012
0.998789
1.00031
1.00035
0.998708
1.00113
0.996943
1.00091
1.0012
0.997351
1.00099
0.998757
1.00018
1.00025
0.998657
1.00089
0.997218
1.00067
1.00113
0.997592
1.00079
0.998757
1.00006
1.00015
0.998637
1.00068
0.997448
1.00046
1.00112
0.997798
1.00061
0.998778
0.999954
1.00007
0.998637
1.00049
0.99763
1.00029
1.00117
0.99797
1.00044
0.998805
0.99985
0.999983
0.998649
1.00032
0.997766
1.00011
1.00126
0.998122
1.00027
0.998833
0.999751
0.999905
0.998665
1.00017
0.997865
0.999942
1.00137
0.998263
1.0001
0.998849
0.999651
0.999828
0.998676
1.00004
0.997925
0.999749
1.00145
0.998384
0.999902
0.998834
0.999541
0.999743
0.998674
0.999913
0.997937
0.99952
1.00143
0.998459
0.999628
0.998754
0.999398
0.999637
0.998644
0.999766
0.997874
0.999239
1.00118
0.998441
0.999214
0.998561
0.999189
0.999484
0.998566
0.999583
0.997707
0.998863
1.00044
0.998221
0.99856
0.998167
0.998855
0.999244
0.99841
0.99933
0.997391
0.99832
0.998828
0.997544
0.997494
0.997424
0.998285
0.998845
0.998127
0.998961
0.996857
0.99749
0.995616
0.995904
0.995706
0.996065
0.99727
0.998144
0.997634
0.998409
0.995996
0.996178
0.989694
0.992358
0.992587
0.993603
0.995426
0.996877
0.996788
0.997607
0.994671
0.993959
0.979315
0.985241
0.986992
0.98916
0.992037
0.994519
0.995268
0.996451
0.992796
0.99029
0.961977
0.972125
0.977071
0.981319
0.985974
0.990227
0.992593
0.994949
0.990794
0.983516
0.935651
0.950477
0.96032
0.967933
0.975303
0.982212
0.987277
0.992287
0.990785
0.974808
0.898157
0.917348
0.93358
0.946545
0.958027
0.968556
0.978203
0.987378
0.999471
0.963354
0.846776
0.868724
0.89188
0.911779
0.928337
0.941964
0.956788
0.966906
1.02417
1.00319
1.00055
1.00392
0.999619
1.00039
1.00036
1.00036
1.00039
0.999617
1.00397
1.00048
0.997023
0.998278
0.997906
1.00002
1.00004
1.00003
0.999995
0.997886
0.998374
0.996951
0.998313
0.993861
0.997549
0.998832
0.998652
0.998637
0.998803
0.997569
0.993956
0.998164
1.00058
0.992831
0.99879
0.998236
0.997847
0.997835
0.998211
0.998818
0.99288
1.00041
1.00126
0.992704
0.999842
0.997963
0.997795
0.997791
0.99794
0.999865
0.992719
1.00109
1.00093
0.992491
0.999946
0.997422
0.997786
0.997792
0.997395
0.99996
0.99251
1.00072
1.00047
0.992434
0.999584
0.99672
0.997588
0.997601
0.99669
0.999579
0.992455
1.00023
1.0001
0.992727
0.999261
0.996192
0.997392
0.997414
0.996156
0.999233
0.992717
0.999863
0.999778
0.993224
0.999073
0.995932
0.997321
0.997357
0.995886
0.999029
0.99319
0.999524
0.999509
0.99376
0.998943
0.99586
0.997336
0.997389
0.995796
0.998883
0.993717
0.999194
0.999321
0.994272
0.998838
0.995896
0.997383
0.997454
0.995807
0.99876
0.994227
0.998919
0.999223
0.994765
0.998764
0.996013
0.99745
0.99754
0.9959
0.998675
0.994714
0.998709
0.999218
0.995235
0.998728
0.996196
0.99754
0.997651
0.996059
0.998632
0.995166
0.998571
0.999288
0.995678
0.998725
0.996426
0.997653
0.997785
0.996264
0.99862
0.995569
0.9985
0.99942
0.996089
0.998739
0.996678
0.997777
0.997929
0.996493
0.998625
0.995919
0.998472
0.999597
0.996469
0.998763
0.996937
0.997901
0.998074
0.996727
0.998645
0.996223
0.998451
0.999805
0.99682
0.998785
0.997188
0.99802
0.998212
0.996955
0.998674
0.996482
0.998417
1.00002
0.997138
0.998785
0.997413
0.998125
0.998337
0.997166
0.998701
0.996685
0.998359
1.00022
0.997417
0.99874
0.997591
0.998202
0.998435
0.997345
0.998712
0.996817
0.998256
1.00033
0.997642
0.998611
0.997691
0.998231
0.998495
0.99748
0.998695
0.99686
0.998084
1.00022
0.997771
0.998342
0.997664
0.998183
0.998495
0.997554
0.998629
0.996786
0.997799
0.999684
0.997708
0.99785
0.997438
0.998009
0.998402
0.997539
0.998483
0.996553
0.99734
0.99836
0.997237
0.996985
0.996885
0.997619
0.998159
0.997403
0.998224
0.9961
0.996595
0.995618
0.995921
0.995486
0.995781
0.996845
0.997658
0.997087
0.997809
0.995335
0.995386
0.990472
0.992929
0.992836
0.993734
0.995389
0.996709
0.996506
0.997221
0.994163
0.993332
0.981403
0.986856
0.988093
0.990054
0.992701
0.994924
0.995446
0.996444
0.992578
0.989944
0.966295
0.97565
0.979733
0.983633
0.987921
0.991683
0.993599
0.995639
0.991145
0.983725
0.942869
0.956717
0.965438
0.972588
0.97936
0.98541
0.989647
0.994118
0.992107
0.975806
0.908605
0.926943
0.94215
0.954458
0.964935
0.97408
0.982403
0.990762
1.00235
0.965929
0.860534
0.882289
0.904905
0.9234
0.937824
0.949132
0.962076
0.970945
1.02828
1.00638
1.00057
1.00387
0.999579
1.00036
1.00032
1.00032
1.00035
0.999575
1.00393
1.0005
0.997055
0.998238
0.997916
1.00005
1.00006
1.00005
1.00002
0.997895
0.998342
0.996983
0.998222
0.993664
0.997382
0.998663
0.998457
0.998441
0.998629
0.997401
0.993764
0.998076
1.00035
0.992506
0.99847
0.997864
0.997436
0.997422
0.997836
0.998493
0.992547
1.00019
1.00116
0.992564
0.999768
0.997822
0.997618
0.997612
0.997794
0.999784
0.992566
1.001
1.00116
0.992773
1.0004
0.997822
0.998182
0.998182
0.997792
1.0004
0.99277
1.00096
1.00099
0.993157
1.00054
0.997635
0.998539
0.998544
0.997599
1.00051
0.99313
1.00079
1.00084
0.993762
1.00054
0.997454
0.998723
0.998737
0.997408
1.0005
0.993696
1.00065
1.00069
0.994438
1.00054
0.997397
0.998879
0.998909
0.997339
1.00049
0.994357
1.00047
1.00054
0.995063
1.0005
0.997429
0.999016
0.999063
0.997351
1.00044
0.99498
1.00026
1.00042
0.995596
1.0004
0.99749
0.999098
0.999167
0.997389
1.00034
0.995526
1.00003
1.00034
0.996057
1.00028
0.99757
0.999134
0.999225
0.997447
1.00023
0.995988
0.999844
1.00031
0.996463
1.00017
0.997676
0.999149
0.999262
0.99753
1.00012
0.996371
0.999709
1.00033
0.996823
1.00007
0.997807
0.999159
0.999296
0.997638
1.00001
0.996694
0.999601
1.00039
0.997138
0.999981
0.997949
0.999168
0.999329
0.99776
0.999918
0.996965
0.999505
1.0005
0.997413
0.99989
0.998089
0.999172
0.999355
0.997882
0.999829
0.997188
0.999408
1.00064
0.997655
0.999793
0.99822
0.999167
0.999372
0.997997
0.999747
0.997364
0.999301
1.00079
0.997865
0.999679
0.998327
0.999149
0.999375
0.998096
0.999665
0.997485
0.99917
1.00091
0.998043
0.999526
0.998392
0.999106
0.999357
0.99817
0.999576
0.997543
0.998997
1.00095
0.998179
0.999303
0.998391
0.999024
0.999307
0.998207
0.999465
0.997518
0.998761
1.0008
0.998238
0.998958
0.99828
0.998877
0.999207
0.99819
0.999313
0.997387
0.998421
1.00027
0.998137
0.998413
0.997993
0.99862
0.999029
0.998098
0.999094
0.997106
0.997917
0.999014
0.997679
0.997524
0.997409
0.998174
0.998721
0.997901
0.998777
0.996616
0.99714
0.996454
0.996455
0.996048
0.996322
0.997387
0.998191
0.997552
0.998327
0.995836
0.995918
0.991653
0.993696
0.993505
0.994368
0.995991
0.997271
0.996981
0.99774
0.994678
0.99388
0.983162
0.988083
0.989022
0.990906
0.993483
0.995612
0.996001
0.997018
0.99315
0.990546
0.968885
0.977643
0.981165
0.984889
0.98904
0.992623
0.994324
0.996327
0.991822
0.984397
0.946253
0.95962
0.967625
0.97446
0.980987
0.986733
0.99064
0.994975
0.992918
0.976516
0.912438
0.930624
0.945213
0.957065
0.967141
0.975848
0.983728
0.991801
1.00331
0.966416
0.865026
0.886795
0.909098
0.926926
0.940656
0.951337
0.963767
0.972123
1.02946
1.00675
1.00057
1.00387
0.999579
1.00036
1.00032
1.00032
1.00035
0.999576
1.00393
1.0005
0.997054
0.998237
0.997915
1.00005
1.00006
1.00004
1.00002
0.997895
0.998339
0.99698
0.998223
0.993661
0.997379
0.998659
0.998451
0.998437
0.998627
0.9974
0.99376
0.998073
1.00035
0.992498
0.998467
0.997861
0.99743
0.997417
0.997832
0.998491
0.992543
1.00019
1.00117
0.992555
0.999769
0.99782
0.997616
0.997606
0.997791
0.999784
0.992565
1.00099
1.00117
0.992765
1.0004
0.99782
0.99818
0.998176
0.99779
1.0004
0.992768
1.00096
1.00102
0.993137
1.00053
0.997631
0.998535
0.998539
0.997597
1.00051
0.993125
1.00079
1.00089
0.993729
1.00053
0.997445
0.998717
0.998732
0.997404
1.0005
0.99369
1.00065
1.00074
0.994412
1.00054
0.997386
0.998873
0.998904
0.997333
1.00049
0.994357
1.00046
1.00055
0.995051
1.0005
0.997416
0.99901
0.999059
0.997346
1.00044
0.994992
1.00023
1.0004
0.995595
1.00041
0.997477
0.999092
0.999163
0.997385
1.00034
0.995538
1.00001
1.00032
0.996056
1.0003
0.997557
0.999125
0.99922
0.997442
1.00022
0.995994
0.999832
1.00028
0.996462
1.00018
0.997663
0.999138
0.999256
0.997523
1.00011
0.996373
0.99971
1.0003
0.996819
1.00008
0.997792
0.999146
0.999287
0.997627
0.999991
0.99669
0.999618
1.00036
0.997128
0.99998
0.997931
0.999152
0.999316
0.997743
0.999888
0.996956
0.999526
1.00046
0.997397
0.999882
0.998069
0.999153
0.999338
0.997859
0.999797
0.997178
0.999418
1.00059
0.997633
0.999777
0.998194
0.999143
0.999349
0.99797
0.999713
0.997355
0.999295
1.00073
0.997836
0.999655
0.998294
0.999118
0.999345
0.998065
0.999628
0.997474
0.999154
1.00085
0.998005
0.999491
0.998353
0.999066
0.999319
0.998133
0.999531
0.997526
0.998977
1.00088
0.998128
0.999255
0.998341
0.998974
0.999259
0.998163
0.999411
0.997492
0.998737
1.00072
0.998171
0.998892
0.998217
0.998815
0.999148
0.998139
0.999249
0.997347
0.998392
1.00016
0.998049
0.998326
0.997912
0.998542
0.998952
0.998034
0.999014
0.997049
0.997878
0.998866
0.997561
0.99741
0.997304
0.998071
0.998619
0.997816
0.998674
0.996536
0.997086
0.996235
0.996289
0.995896
0.996178
0.997245
0.998052
0.997433
0.998193
0.995721
0.995841
0.991322
0.993447
0.993293
0.994165
0.995792
0.997077
0.996813
0.997562
0.994515
0.993763
0.98268
0.987704
0.988716
0.990617
0.993199
0.995336
0.995755
0.99677
0.992923
0.990371
0.968261
0.9771
0.980723
0.984475
0.988632
0.992223
0.993961
0.995966
0.991496
0.984129
0.945554
0.958919
0.967024
0.973897
0.980428
0.986184
0.990136
0.994486
0.992489
0.976186
0.911822
0.929834
0.944416
0.956282
0.966351
0.975056
0.982973
0.991071
1.00263
0.965885
0.864303
0.885894
0.908154
0.926018
0.939767
0.950465
0.962948
0.971385
1.02883
1.00645
1.00055
1.00391
0.999618
1.00039
1.00036
1.00035
1.00039
0.999613
1.00397
1.00048
0.997022
0.998268
0.997893
1.00001
1.00003
1.00002
0.999978
0.997871
0.998366
0.996939
0.998309
0.993857
0.997541
0.998822
0.998636
0.998623
0.99879
0.997558
0.993946
0.998167
1.0006
0.99282
0.998788
0.998232
0.997838
0.997826
0.998208
0.998817
0.99287
1.00042
1.00133
0.992656
0.999843
0.997963
0.997794
0.997786
0.997944
0.999869
0.992706
1.00111
1.001
0.992435
0.999961
0.997422
0.997791
0.997787
0.997401
0.999958
0.99246
1.00079
1.00049
0.992402
0.999611
0.996718
0.997597
0.9976
0.996691
0.999579
0.992383
1.0003
1.00008
0.992714
0.999294
0.99619
0.997404
0.997417
0.996151
0.99924
0.992657
0.999892
0.999744
0.993226
0.999104
0.995929
0.997334
0.997361
0.995876
0.999038
0.993144
0.999522
0.999467
0.993768
0.998969
0.995853
0.997348
0.997393
0.995781
0.998895
0.993674
0.999184
0.999277
0.994284
0.998855
0.995886
0.997391
0.997455
0.995792
0.99878
0.994185
0.9989
0.999186
0.99478
0.998773
0.996001
0.997454
0.99754
0.995882
0.998698
0.99467
0.998687
0.999181
0.995253
0.998733
0.996184
0.99754
0.997649
0.996039
0.998662
0.995124
0.998541
0.999247
0.995693
0.998724
0.996412
0.997648
0.99778
0.99624
0.998656
0.995534
0.998454
0.999374
0.996098
0.998728
0.996662
0.997766
0.99792
0.996464
0.998662
0.99589
0.998412
0.999545
0.99647
0.998739
0.996913
0.997885
0.99806
0.996693
0.998676
0.996198
0.998385
0.999741
0.99681
0.998747
0.997155
0.997997
0.998194
0.996915
0.998696
0.996458
0.998344
0.999944
0.997113
0.998734
0.997371
0.998092
0.998312
0.997121
0.998712
0.99666
0.99828
1.00011
0.997373
0.998675
0.997536
0.998157
0.998404
0.997297
0.998711
0.996791
0.998179
1.00018
0.997571
0.998528
0.997621
0.998172
0.998454
0.997429
0.998683
0.99683
0.99801
1.00003
0.99766
0.998234
0.997575
0.998106
0.99844
0.997496
0.998603
0.996753
0.997722
0.999412
0.99754
0.997707
0.997321
0.997906
0.998324
0.997469
0.998439
0.996508
0.997257
0.997968
0.996978
0.996784
0.996721
0.997472
0.998041
0.997304
0.99815
0.996033
0.996498
0.995032
0.995508
0.995183
0.995535
0.996622
0.99747
0.996933
0.997687
0.995226
0.995263
0.98957
0.992246
0.992348
0.993342
0.995033
0.996399
0.996248
0.997011
0.993978
0.993145
0.980032
0.985751
0.987295
0.989413
0.992123
0.994411
0.995007
0.996082
0.992272
0.989649
0.964419
0.973998
0.978464
0.982592
0.986985
0.990841
0.992857
0.994998
0.990614
0.98321
0.940604
0.954504
0.963591
0.971014
0.977944
0.984129
0.98851
0.993113
0.991324
0.975141
0.90608
0.92412
0.939482
0.952045
0.962732
0.97205
0.980532
0.989008
1.0009
0.964603
0.857323
0.878791
0.901471
0.920288
0.935069
0.946696
0.959902
0.968983
1.02682
1.00585
0.999819
1.00301
0.998896
0.999618
0.999577
0.999575
0.999611
0.998892
1.00306
0.999752
0.995571
0.996399
0.995985
0.997885
0.997892
0.997885
0.997858
0.995966
0.996493
0.995494
0.997459
0.992984
0.996529
0.99756
0.997384
0.997373
0.997534
0.996551
0.993088
0.997328
1.00092
0.993464
0.999456
0.998806
0.998463
0.998453
0.998784
0.999488
0.993524
1.00077
1.00246
0.994336
1.00167
0.999848
0.999745
0.999735
0.999827
1.00168
0.994349
1.00233
1.00258
0.994638
1.00229
0.99994
1.00036
1.00036
0.999922
1.00231
0.994618
1.00244
1.00239
0.994867
1.00218
0.999569
1.00048
1.00048
0.999542
1.00219
0.994839
1.00221
1.00221
0.99532
1.00199
0.999242
1.00047
1.00049
0.999199
1.00198
0.995265
1.00201
1.00199
0.995854
1.00183
0.99905
1.00047
1.0005
0.99899
1.0018
0.995761
1.00179
1.00174
0.996324
1.00163
0.998925
1.00043
1.00047
0.998843
1.00159
0.996202
1.00149
1.00148
0.996715
1.00139
0.998826
1.00034
1.0004
0.998721
1.00134
0.996568
1.00118
1.00127
0.997044
1.00115
0.99876
1.00022
1.0003
0.998628
1.00109
0.996883
1.0009
1.00115
0.997312
1.00094
0.998733
1.0001
1.00019
0.998576
1.00086
0.997161
1.00065
1.00109
0.997546
1.00074
0.998734
0.999981
1.0001
0.998558
1.00065
0.997395
1.00043
1.00108
0.997744
1.00055
0.998747
0.999871
1
0.998558
1.00046
0.997581
1.00024
1.00111
0.997918
1.00038
0.998765
0.999767
0.999917
0.998569
1.00029
0.997722
1.00006
1.00117
0.998073
1.00021
0.998782
0.999667
0.999835
0.998583
1.00013
0.997824
0.999885
1.00125
0.998196
1.00002
0.998783
0.999562
0.999753
0.998594
0.999982
0.997884
0.999692
1.0013
0.998288
0.999801
0.998749
0.99944
0.99966
0.998589
0.999839
0.99789
0.999466
1.00122
0.998323
0.9995
0.998646
0.999281
0.999543
0.998553
0.999683
0.99782
0.99918
1.00089
0.998253
0.99905
0.998423
0.999048
0.999373
0.998465
0.999488
0.997646
0.998789
1.00004
0.997959
0.99834
0.997984
0.998673
0.999101
0.998286
0.999213
0.997313
0.998225
0.99824
0.997161
0.997185
0.997166
0.998035
0.998641
0.997959
0.998802
0.996745
0.99736
0.99473
0.995304
0.995235
0.995666
0.996896
0.997825
0.997376
0.998173
0.995816
0.995985
0.98832
0.991351
0.991811
0.992942
0.994816
0.996345
0.996356
0.997226
0.994362
0.993649
0.977123
0.983545
0.985694
0.988043
0.991016
0.993613
0.994517
0.995807
0.992267
0.989784
0.958769
0.96945
0.974965
0.97947
0.98428
0.988704
0.991289
0.993821
0.989872
0.982615
0.931554
0.946737
0.957235
0.965139
0.972689
0.979808
0.985163
0.990426
0.989302
0.973489
0.892527
0.91185
0.928809
0.942263
0.954036
0.964798
0.974734
0.984148
0.996817
0.960777
0.839054
0.860927
0.884788
0.905451
0.9227
0.936934
0.952279
0.962728
1.02087
1.00156
1.0036
1.00678
1.00306
1.00396
1.00392
1.00392
1.00396
1.00306
1.00684
1.00355
0.996318
0.996946
0.996476
0.99835
0.99831
0.998303
0.998332
0.996472
0.99707
0.996278
0.994239
0.989818
0.993041
0.993916
0.993711
0.993703
0.9939
0.993062
0.98994
0.994165
0.99561
0.987859
0.99348
0.992835
0.992484
0.992477
0.992815
0.993496
0.987912
0.995507
0.996332
0.987419
0.994325
0.992664
0.992495
0.992484
0.99264
0.99433
0.987416
0.996197
0.996276
0.987475
0.994607
0.99242
0.992674
0.992664
0.992409
0.994607
0.987418
0.996113
0.99634
0.988128
0.994826
0.992359
0.993029
0.993033
0.992355
0.994821
0.988038
0.996146
0.996655
0.98927
0.995279
0.992656
0.993619
0.993634
0.992634
0.995262
0.989153
0.996424
0.997015
0.990524
0.995821
0.993164
0.994305
0.994331
0.99312
0.995791
0.990386
0.99674
0.997319
0.991667
0.996308
0.99372
0.994951
0.994985
0.993653
0.996257
0.991498
0.996991
0.997577
0.992674
0.996712
0.99426
0.995512
0.995558
0.994172
0.996639
0.992458
0.997182
0.997854
0.993546
0.997047
0.994773
0.995993
0.996058
0.994662
0.996966
0.993294
0.997341
0.998164
0.994279
0.99734
0.995262
0.996406
0.996492
0.995125
0.997261
0.994022
0.99747
0.998463
0.994913
0.997607
0.995721
0.996763
0.99687
0.995556
0.99751
0.994646
0.997574
0.998766
0.995465
0.997834
0.996139
0.997071
0.997197
0.995949
0.997713
0.995154
0.997684
0.999068
0.99595
0.998025
0.996512
0.997332
0.997479
0.996304
0.997892
0.995549
0.997799
0.999351
0.996383
0.998175
0.996838
0.997549
0.997717
0.996617
0.99804
0.995863
0.997868
0.999613
0.996754
0.998269
0.997103
0.997717
0.997908
0.996882
0.998153
0.996099
0.99787
0.999811
0.997055
0.99827
0.997286
0.997825
0.998045
0.997091
0.998221
0.996246
0.997795
0.999875
0.997256
0.998136
0.99736
0.997854
0.998114
0.997231
0.99823
0.996286
0.997623
0.999635
0.997315
0.997804
0.997272
0.997769
0.99809
0.997282
0.998157
0.996189
0.997309
0.998793
0.997122
0.997177
0.996924
0.997498
0.99792
0.997205
0.997964
0.995903
0.996784
0.996932
0.996387
0.996059
0.99614
0.996911
0.997508
0.996935
0.997594
0.995347
0.995922
0.993288
0.994517
0.994083
0.994586
0.995735
0.996664
0.996346
0.996952
0.994394
0.994513
0.986398
0.99028
0.990468
0.991611
0.993435
0.995017
0.995219
0.995921
0.992876
0.992105
0.9735
0.981234
0.983694
0.986046
0.989036
0.991829
0.993068
0.994278
0.99065
0.988115
0.95133
0.963866
0.971016
0.975844
0.980904
0.985844
0.989087
0.991763
0.987994
0.980731
0.919442
0.937267
0.950145
0.958541
0.966549
0.974545
0.981071
0.986924
0.986654
0.971276
0.871744
0.894979
0.914995
0.929453
0.942368
0.954628
0.966504
0.977343
0.992222
0.957708
0.809124
0.83186
0.8569
0.879557
0.899671
0.916894
0.935515
0.948749
1.01044
0.997671
0.999563
1.00354
0.999752
1.00048
1.00049
1.00049
1.00047
0.999751
1.00356
0.999502
0.994941
0.996229
0.995482
0.996924
0.996953
0.996949
0.996911
0.995479
0.996282
0.994863
0.999324
0.994121
0.997298
0.99815
0.998051
0.998044
0.998137
0.99732
0.994179
0.999164
1.0038
0.995501
1.00075
1.00041
1.00017
1.00017
1.00041
1.00078
0.99554
1.00362
1.00493
0.996244
1.00232
1.00113
1.00101
1.00102
1.00113
1.00236
0.996251
1.00477
1.00438
0.99621
1.00248
1.00084
1.00104
1.00106
1.00081
1.00249
0.996185
1.00424
1.00369
0.996284
1.00233
1.0004
1.00092
1.00092
1.00034
1.00231
0.996245
1.00355
1.00312
0.996592
1.00217
1.00003
1.00079
1.00079
0.999975
1.00211
0.996552
1.00296
1.00259
0.996932
1.00196
0.999711
1.00062
1.00063
0.99966
1.00187
0.996899
1.00238
1.00208
0.997192
1.00167
0.999416
1.00042
1.00045
0.999365
1.00157
0.997183
1.00181
1.00164
0.997387
1.00139
0.999178
1.00022
1.00027
0.999118
1.00126
0.997408
1.00131
1.00133
0.997581
1.00114
0.999026
1.00006
1.00011
0.998952
1.001
0.997588
1.00094
1.00114
0.997786
1.00094
0.998944
0.999939
1
0.998855
1.00077
0.99773
1.00065
1.00104
0.99796
1.00077
0.998913
0.999857
0.999926
0.998808
1.00061
0.997857
1.00042
1.00101
0.99812
1.00064
0.998919
0.999798
0.999877
0.998796
1.00048
0.997976
1.00023
1.00106
0.998266
1.00053
0.998947
0.999751
0.999843
0.998806
1.00036
0.998075
1.00006
1.00117
0.998398
1.00043
0.998982
0.999712
0.999822
0.998828
1.00027
0.998147
0.999917
1.00131
0.998534
1.0003
0.999012
0.999676
0.99981
0.99886
1.0002
0.998189
0.999775
1.00145
0.998686
1.00013
0.999019
0.999632
0.999801
0.998897
1.00014
0.9982
0.999625
1.0015
0.998849
0.999852
0.998972
0.999563
0.999782
0.998927
1.00007
0.998168
0.999446
1.00126
0.998954
0.9994
0.998803
0.999432
0.99973
0.998933
0.999987
0.99807
0.999201
1.00037
0.998811
0.998651
0.998401
0.999165
0.999602
0.998887
0.999854
0.997874
0.998831
0.998223
0.998034
0.997357
0.997543
0.998586
0.999287
0.998729
0.999631
0.997516
0.998229
0.993749
0.995754
0.995059
0.995813
0.997355
0.998544
0.998322
0.999234
0.996898
0.997203
0.985259
0.990246
0.990742
0.992377
0.994777
0.99688
0.997389
0.99854
0.995883
0.995328
0.96903
0.97823
0.982404
0.985755
0.989613
0.993342
0.995296
0.997246
0.994335
0.992012
0.94175
0.956465
0.966957
0.973372
0.979734
0.986246
0.990952
0.994982
0.992688
0.985599
0.909965
0.930531
0.944027
0.952999
0.962496
0.972665
0.98156
0.989647
0.992466
0.977403
0.863694
0.886736
0.905722
0.918992
0.933472
0.948874
0.964643
0.979119
1.00078
0.967798
0.795858
0.811905
0.836945
0.860942
0.883183
0.903249
0.925906
0.942692
1.01744
1.01898
0.758708
0.771931
0.79515
0.82138
0.846347
0.867861
0.893983
0.907094
0.988153
1.01646
0.732807
0.743886
0.766272
0.792663
0.818253
0.840566
0.8681
0.882687
0.959125
1.03112
0.70568
0.715413
0.737085
0.762507
0.787277
0.808957
0.836205
0.85442
0.921351
1.02994
0.677849
0.686405
0.70759
0.731347
0.754194
0.774214
0.799388
0.820422
0.876623
0.998357
0.649668
0.657013
0.677733
0.699464
0.719928
0.737605
0.759378
0.780738
0.825674
0.944877
0.621404
0.627375
0.647431
0.66668
0.684207
0.699009
0.716928
0.737166
0.771112
0.879153
0.593233
0.597639
0.616562
0.632944
0.647198
0.658664
0.672291
0.690278
0.715325
0.807296
0.565237
0.56792
0.585126
0.598354
0.609164
0.617097
0.626382
0.640935
0.659004
0.733075
0.537454
0.538399
0.553319
0.563202
0.570288
0.574382
0.579059
0.589445
0.601598
0.659138
0.509993
0.509283
0.5214
0.527572
0.530148
0.529746
0.529613
0.53559
0.542573
0.585599
0.482927
0.480564
0.489271
0.490995
0.488446
0.483353
0.478861
0.480479
0.483076
0.51364
0.456125
0.452006
0.456525
0.453215
0.445704
0.436383
0.428188
0.425803
0.424747
0.44515
0.42934
0.423329
0.423154
0.414868
0.402974
0.39008
0.378845
0.37309
0.369105
0.381618
0.402349
0.394441
0.389607
0.376849
0.361218
0.345442
0.33189
0.323546
0.317352
0.324061
0.375091
0.365505
0.356389
0.339776
0.321093
0.303168
0.288016
0.277844
0.270056
0.272648
0.347776
0.336739
0.323825
0.304041
0.283025
0.263658
0.247532
0.236161
0.227226
0.226876
0.320577
0.308283
0.29214
0.269898
0.247261
0.227082
0.210475
0.198343
0.188531
0.185937
0.293542
0.28027
0.261518
0.237525
0.213945
0.193479
0.176745
0.164138
0.153668
0.149357
0.266763
0.252846
0.232126
0.207065
0.183177
0.162849
0.146288
0.13345
0.122558
0.116703
0.240418
0.226188
0.204142
0.178663
0.15503
0.135234
0.119035
0.106019
0.0949247
0.0878033
0.214747
0.200491
0.177746
0.152456
0.12957
0.110526
0.0947832
0.0818589
0.0709771
0.0631025
0.190026
0.175968
0.153119
0.128539
0.106783
0.0886356
0.073647
0.0612756
0.0510987
0.0430648
0.166532
0.152833
0.130413
0.106995
0.0865951
0.069629
0.0557716
0.0444281
0.035371
0.0279124
0.144513
0.131291
0.109742
0.0878708
0.0690168
0.0535321
0.0411503
0.0312273
0.0235689
0.0172493
0.124167
0.111511
0.0911954
0.0710982
0.0540086
0.040263
0.0296174
0.0213246
0.0151574
0.010213
0.105632
0.0936163
0.074819
0.0566183
0.0414716
0.029647
0.0208423
0.0141866
0.00944105
0.00583535
0.0889862
0.0776645
0.0605928
0.0443622
0.0312618
0.0214141
0.0143804
0.00922202
0.00572261
0.0032477
0.0742396
0.0636651
0.0483972
0.0341994
0.0231666
0.0152104
0.00975488
0.00587927
0.0033952
0.00177296
0.0613416
0.0516112
0.0381156
0.0259542
0.0169
0.0106464
0.00652202
0.00369443
0.0019845
0.000951502
0.0502021
0.041447
0.0296157
0.0194132
0.0121674
0.00737448
0.00432388
0.00231449
0.00115939
0.000508316
0.774456
0.793597
0.819271
0.84474
0.86823
0.887883
0.910504
0.920664
0.991973
0.995062
0.750226
0.767368
0.793693
0.820208
0.844701
0.865256
0.889818
0.90086
0.970111
1.00513
0.723828
0.739378
0.766517
0.793771
0.81859
0.839086
0.864093
0.878224
0.941076
1.00909
0.696016
0.709653
0.737387