/*--------------------------------*- C++ -*----------------------------------*\
| =========                 |                                                 |
| \\      /  F ield         | OpenFOAM: The Open Source CFD Toolbox           |
|  \\    /   O peration     | Version:  4.1                                   |
|   \\  /    A nd           | Web:      www.OpenFOAM.org                      |
|    \\/     M anipulation  |                                                 |
\*---------------------------------------------------------------------------*/
FoamFile
{
    version     2.0;
    format      ascii;
    class       volVectorField;
    location    "55";
    object      U;
}
// * * * * * * * * * * * * * * * * * * * * * * * * * * * * * * * * * * * * * //

dimensions      [0 1 -1 0 0 0 0];

internalField   nonuniform List<vector> 
12000
(
(0.091974 -0.00967733 0.00967296)
(0.0965763 -0.00181448 0.0106314)
(0.0959821 -0.0013558 0.0110414)
(0.0955909 -0.000560324 0.0110628)
(0.0954938 -0.000151357 0.011092)
(0.0954941 0.000134058 0.0110919)
(0.0955916 0.000544316 0.0110629)
(0.0959829 0.00134145 0.0110426)
(0.0965774 0.00180063 0.0106322)
(0.091978 0.00968447 0.00967454)
(0.0862031 -0.00379517 0.00378529)
(0.0951849 -0.00253126 0.00520068)
(0.0937713 -0.00195959 0.00564566)
(0.0926951 -0.000885786 0.00562436)
(0.0923597 -0.000279533 0.00565843)
(0.0923609 0.000235145 0.00565826)
(0.092699 0.000843646 0.00562303)
(0.0937761 0.00191789 0.00564321)
(0.0951899 0.0024889 0.00520434)
(0.0862141 0.00378898 0.00379144)
(0.0822671 0.000787633 -0.000805374)
(0.0933812 -0.00256254 0.000184491)
(0.0920629 -0.00164607 0.000472953)
(0.090819 -0.000800094 0.000472052)
(0.0903354 -0.000301864 0.000509539)
(0.0903439 0.000225121 0.000509587)
(0.0908317 0.000726071 0.000470771)
(0.0920779 0.00157678 0.000468351)
(0.0933991 0.00250624 0.000180043)
(0.082326 -0.000819496 -0.00081028)
(0.0795489 0.00269645 -0.0027241)
(0.0911472 -0.00252285 -0.00231054)
(0.0904393 -0.00119288 -0.00223177)
(0.0893956 -0.000673576 -0.00216707)
(0.0888844 -0.000302411 -0.00211248)
(0.0888873 0.000181496 -0.00212046)
(0.0894144 0.000563302 -0.00217128)
(0.0904624 0.00108832 -0.00223795)
(0.0911797 0.00244373 -0.00231439)
(0.0796687 -0.00274335 -0.00272346)
(0.0781412 0.00318382 -0.00322484)
(0.0894371 -0.00243984 -0.00331345)
(0.0894735 -0.000812276 -0.00340054)
(0.0886608 -0.000619852 -0.00324713)
(0.0880961 -0.000313285 -0.0031971)
(0.0881302 0.000133693 -0.00319814)
(0.0886926 0.000468537 -0.00325474)
(0.0895246 0.000664352 -0.00340531)
(0.0895239 0.00233054 -0.00330567)
(0.0783409 -0.0032499 -0.00321716)
(0.0773727 0.00308027 -0.00313953)
(0.0883448 -0.00231411 -0.00358052)
(0.0890392 -0.000504608 -0.00381836)
(0.0883307 -0.000621207 -0.00359676)
(0.087674 -0.000323044 -0.00358061)
(0.0877894 7.80512e-05 -0.00354475)
(0.0883741 0.000407494 -0.00360741)
(0.0891044 0.000305025 -0.00383438)
(0.0884877 0.0021694 -0.00355983)
(0.0776792 -0.00317262 -0.00312461)
(0.0766842 0.00276169 -0.00284393)
(0.087513 -0.00217823 -0.00348613)
(0.0887278 -0.000277393 -0.00389781)
(0.08808 -0.000652217 -0.00361223)
(0.0873803 -0.000328665 -0.00362502)
(0.0875237 3.92976e-06 -0.00357526)
(0.0881462 0.000354562 -0.00362056)
(0.0888598 1.26821e-05 -0.00390334)
(0.0877038 0.00198716 -0.00344824)
(0.0771395 -0.00289081 -0.00282485)
(0.0759147 0.00238411 -0.00249559)
(0.0867608 -0.00205471 -0.00323151)
(0.0884179 -0.000136297 -0.00381141)
(0.0877899 -0.00070546 -0.0034742)
(0.0870999 -0.000340694 -0.00350797)
(0.0872485 -9.24147e-05 -0.00346254)
(0.0878889 0.000304955 -0.00348078)
(0.088617 -0.00021531 -0.00381385)
(0.086991 0.0017989 -0.00318759)
(0.0765724 -0.00256298 -0.00247496)
(0.0750924 0.00201349 -0.0021624)
(0.0860682 -0.00194849 -0.00292911)
(0.088099 -7.5877e-05 -0.0036583)
(0.0874616 -0.000783047 -0.00328078)
(0.086825 -0.000366771 -0.00332868)
(0.0869737 -0.000210613 -0.00329413)
(0.0876138 0.000250733 -0.00328313)
(0.0883985 -0.000394655 -0.00365569)
(0.0863455 0.00160549 -0.00288665)
(0.0760199 -0.00225541 -0.00214031)
(0.0742474 0.00167237 -0.00186951)
(0.0854278 -0.0018628 -0.00264407)
(0.0877939 -8.22235e-05 -0.00348472)
(0.087143 -0.00088419 -0.00307107)
(0.0865683 -0.000415275 -0.00313707)
(0.0867251 -0.000352614 -0.00311303)
(0.0873523 0.000181287 -0.00307422)
(0.0882226 -0.000546183 -0.00347826)
(0.0857696 0.00140229 -0.00260673)
(0.0755277 -0.00199356 -0.00184354)
(0.0733631 0.00135583 -0.00161551)
(0.0848152 -0.00180065 -0.00239868)
(0.0875054 -0.000136438 -0.00330644)
(0.086825 -0.00101215 -0.00287192)
(0.0863295 -0.00049645 -0.00295344)
(0.0865088 -0.00052408 -0.00293745)
(0.0871068 8.32665e-05 -0.00287641)
(0.0880857 -0.000691615 -0.00330176)
(0.0852581 0.00118732 -0.00235891)
(0.0751054 -0.00177666 -0.00158255)
(0.0724151 0.00105673 -0.00139778)
(0.0842555 -0.00177549 -0.00217945)
(0.0872022 -0.000240354 -0.00313373)
(0.0864952 -0.00117419 -0.00269439)
(0.0861084 -0.000618814 -0.00278226)
(0.0863188 -0.000730874 -0.00277416)
(0.0868942 -5.30225e-05 -0.00269025)
(0.087984 -0.000847261 -0.00313024)
(0.0848278 0.000961134 -0.00214094)
(0.0747553 -0.00159984 -0.00135273)
(0.0713815 0.000772622 -0.00122038)
(0.083713 -0.00180304 -0.0019913)
(0.0868715 -0.000410847 -0.00297009)
(0.0861595 -0.00137985 -0.00253734)
(0.0858978 -0.00079463 -0.00262587)
(0.0861556 -0.00098154 -0.00262495)
(0.0867094 -0.000238645 -0.00252177)
(0.0879092 -0.00102184 -0.0029698)
(0.0844949 0.000723357 -0.00196279)
(0.0744749 -0.00146283 -0.00115408)
(0.0702336 0.000488964 -0.00107474)
(0.0831598 -0.0018929 -0.00183032)
(0.0865266 -0.000655651 -0.00280922)
(0.0858212 -0.00164625 -0.00239858)
(0.0856988 -0.00104238 -0.00248322)
(0.0860231 -0.00129096 -0.0024908)
(0.0865627 -0.000486601 -0.00237261)
(0.0878895 -0.00122869 -0.00281837)
(0.0842739 0.00046761 -0.00181612)
(0.0742857 -0.00136253 -0.000980952)
(0.0689292 0.000189878 -0.000952402)
(0.0825986 -0.00205916 -0.00168297)
(0.0861348 -0.000987434 -0.00265769)
(0.0854799 -0.00199443 -0.00227735)
(0.0855068 -0.00138349 -0.00235557)
(0.0859262 -0.00167765 -0.00237091)
(0.0864689 -0.000813896 -0.00224056)
(0.0879273 -0.0014871 -0.00267889)
(0.0841811 0.000182317 -0.00168729)
(0.0742151 -0.00129659 -0.000828983)
(0.0674034 -0.000138669 -0.000848167)
(0.0819825 -0.00231995 -0.00155188)
(0.0856883 -0.0014286 -0.00251417)
(0.0851323 -0.00244819 -0.00217194)
(0.0853225 -0.00184304 -0.00223878)
(0.0858698 -0.00216571 -0.00226177)
(0.0864393 -0.00124388 -0.00212363)
(0.0880469 -0.00181661 -0.00254572)
(0.0842318 -0.000145806 -0.00156758)
(0.0742938 -0.00126638 -0.000696415)
(0.0655722 -0.00051165 -0.000754854)
(0.0812918 -0.00269927 -0.00143227)
(0.0851696 -0.00200789 -0.00237548)
(0.0847698 -0.00303985 -0.00207638)
(0.0851404 -0.0024554 -0.00212832)
(0.0858567 -0.00278752 -0.00216039)
(0.0864919 -0.00180559 -0.00201792)
(0.0882658 -0.00224247 -0.00241876)
(0.0844486 -0.000535712 -0.00145784)
(0.0745582 -0.00127574 -0.000577599)
(0.0633247 -0.000943824 -0.000663926)
(0.0804607 -0.00322568 -0.0013176)
(0.084557 -0.00276481 -0.00223556)
(0.0843768 -0.0038113 -0.00198416)
(0.0849539 -0.00326456 -0.00201964)
(0.0858917 -0.00358365 -0.00206254)
(0.0866444 -0.00253789 -0.00191807)
(0.0886129 -0.00279945 -0.00229766)
(0.0848715 -0.00101052 -0.00135783)
(0.0750512 -0.00133036 -0.000464856)
(0.0605204 -0.00144818 -0.000564749)
(0.0794184 -0.00393563 -0.00119359)
(0.0838151 -0.00375331 -0.00208675)
(0.0839319 -0.00481481 -0.00188921)
(0.0847507 -0.00432344 -0.0019067)
(0.0859762 -0.00460605 -0.00196031)
(0.0869122 -0.0034913 -0.00181864)
(0.0891211 -0.00353223 -0.00217791)
(0.0855476 -0.00160143 -0.00126463)
(0.0758253 -0.00144008 -0.000351416)
(0.0569847 -0.00203219 -0.000441924)
(0.0780166 -0.0048656 -0.00104704)
(0.0829076 -0.00503948 -0.00191483)
(0.0834054 -0.0061167 -0.00178271)
(0.0845112 -0.00569821 -0.00178292)
(0.0861032 -0.00592268 -0.00184584)
(0.0873095 -0.00473006 -0.00171417)
(0.0898276 -0.00449722 -0.0020503)
(0.0865425 -0.00235046 -0.00116894)
(0.0769528 -0.0016193 -0.000228878)
(0.0525096 -0.0026923 -0.000271525)
(0.076054 -0.0060489 -0.000858163)
(0.0817588 -0.00669768 -0.00170898)
(0.0827492 -0.00779798 -0.0016543)
(0.0842044 -0.0074703 -0.00163959)
(0.0862533 -0.00762075 -0.00170873)
(0.0878517 -0.00633963 -0.00159344)
(0.0907599 -0.00577024 -0.00190342)
(0.0879275 -0.0033154 -0.00106153)
(0.078529 -0.00189062 -8.73199e-05)
(0.0468577 -0.00339787 -2.46638e-05)
(0.0732366 -0.00749741 -0.000598848)
(0.0802718 -0.00880016 -0.00144792)
(0.0819062 -0.00995422 -0.00148574)
(0.0837812 -0.00973848 -0.00146243)
(0.0863884 -0.00981173 -0.00153529)
(0.0885403 -0.00843786 -0.00144158)
(0.0919581 -0.00746151 -0.00172501)
(0.0897987 -0.00457625 -0.000928388)
(0.0806859 -0.00228591 8.82031e-05)
(0.039808 -0.00406757 0.000317808)
(0.0691719 -0.00917191 -0.000231154)
(0.078239 -0.0113953 -0.00110099)
(0.0807691 -0.0126915 -0.00125333)
(0.0831541 -0.0126214 -0.00123161)
(0.0864368 -0.0126393 -0.00130366)
(0.0893509 -0.0111851 -0.00123704)
(0.0934685 -0.00973112 -0.00149632)
(0.0922704 -0.00625558 -0.000752444)
(0.0836015 -0.00285804 0.000316405)
(0.0312336 -0.00453846 0.000748473)
(0.063337 -0.0109232 0.00026704)
(0.0753393 -0.0144414 -0.000623925)
(0.0791759 -0.0161061 -0.000917305)
(0.0821895 -0.0162621 -0.000921067)
(0.0862691 -0.016289 -0.000988891)
(0.0902112 -0.0148021 -0.000951871)
(0.0953201 -0.0128188 -0.00118787)
(0.0954969 -0.00854514 -0.000506461)
(0.0875482 -0.00368621 0.000625676)
(0.0212437 -0.00452097 0.00118963)
(0.0551914 -0.0124139 0.000863392)
(0.0709463 -0.0177094 1.06513e-05)
(0.0767635 -0.0202258 -0.000423109)
(0.0806542 -0.0208259 -0.000487824)
(0.0856754 -0.0210002 -0.000554633)
(0.0909755 -0.0195949 -0.000547925)
(0.0975151 -0.0170902 -0.000761712)
(0.0996848 -0.0117694 -0.00015099)
(0.0929156 -0.00492654 0.00105675)
(0.0103262 -0.00350275 0.00137787)
(0.0443468 -0.0130073 0.00140056)
(0.0642114 -0.0206424 0.000815355)
(0.0728908 -0.024894 0.000317977)
(0.0781425 -0.0264843 0.000138149)
(0.0842966 -0.0270979 4.36086e-05)
(0.0913279 -0.0260057 2.39273e-05)
(0.0999304 -0.0231213 -0.000165857)
(0.105071 -0.0164718 0.000372613)
(0.100491 -0.00680511 0.00166487)
(-0.000201428 -0.000590465 0.00136354)
(0.0306578 -0.0117157 0.00160274)
(0.0537691 -0.0222815 0.00164989)
(0.066251 -0.0295523 0.00138354)
(0.0738547 -0.0332291 0.00109572)
(0.081598 -0.034934 0.000895788)
(0.090814 -0.0346288 0.000825706)
(0.102367 -0.0318307 0.000662432)
(0.112038 -0.0237425 0.00114562)
(0.111315 -0.0100543 0.00254365)
(-0.00420489 0.00212382 0.00180934)
(0.0162783 -0.00760526 0.00217468)
(0.0390293 -0.0212722 0.00269792)
(0.0552214 -0.0331452 0.00277684)
(0.0662694 -0.0407471 0.00247979)
(0.0763779 -0.0449176 0.00212483)
(0.0882267 -0.0463456 0.00194376)
(0.103776 -0.0446402 0.00179787)
(0.120209 -0.0356237 0.0022563)
(0.129257 -0.0152449 0.00382823)
(-0.00749868 -0.000103617 0.00056914)
(-0.00220277 -0.00501592 0.00211498)
(0.017519 -0.0170416 0.00415939)
(0.0370642 -0.0326689 0.00505623)
(0.0529754 -0.0462761 0.0047689)
(0.0671701 -0.0560312 0.00405348)
(0.0827218 -0.0619261 0.00356091)
(0.103812 -0.0637602 0.0033154)
(0.129789 -0.0567093 0.00385774)
(0.156609 -0.0285586 0.00567442)
(-0.0138773 -0.00429693 -0.00185031)
(-0.0161655 -0.0139412 -0.00228723)
(-0.00550066 -0.0229057 0.000558943)
(0.0107298 -0.0335381 0.00451308)
(0.0283351 -0.0481245 0.00670451)
(0.0468147 -0.0642008 0.00694412)
(0.0663963 -0.0797627 0.00619856)
(0.0954861 -0.0898236 0.00557787)
(0.128672 -0.101569 0.00572958)
(0.217696 -0.0472477 0.00833694)
(0.0965729 -0.0106353 0.00180735)
(0.101384 -0.00138665 0.00138103)
(0.100947 -0.00122746 0.00148649)
(0.10067 -0.000461869 0.0014612)
(0.100625 -0.000114288 0.00147453)
(0.100626 0.000101502 0.00147436)
(0.100671 0.000450466 0.00146061)
(0.10095 0.00121865 0.00148516)
(0.101392 0.00137888 0.00138263)
(0.0965769 0.0107021 0.00181408)
(0.0951722 -0.00520899 0.00251516)
(0.108466 -0.00243848 0.00242541)
(0.106213 -0.00200901 0.00246556)
(0.105004 -0.000801562 0.00241453)
(0.104762 -0.000248389 0.00244905)
(0.104765 0.000209874 0.00245034)
(0.105009 0.000764407 0.00241272)
(0.106224 0.00196959 0.00246056)
(0.108484 0.00238737 0.00242352)
(0.0951641 0.0052364 0.00251807)
(0.0933547 -0.000199641 0.00253449)
(0.111128 -0.00291651 0.00289073)
(0.10907 -0.00171283 0.00286543)
(0.107463 -0.000693994 0.00279763)
(0.107088 -0.000285315 0.00284358)
(0.107085 0.00020909 0.00283649)
(0.10747 0.000620704 0.00279412)
(0.109079 0.0016426 0.00286006)
(0.11112 0.00285853 0.00288843)
(0.0934093 0.00018259 0.00253303)
(0.0910974 0.00228574 0.00248027)
(0.110789 -0.0030594 0.00301993)
(0.109597 -0.00123077 0.00306183)
(0.108095 -0.000568919 0.0030298)
(0.107682 -0.000301766 0.00306051)
(0.107698 0.000185204 0.00306578)
(0.108116 0.000459933 0.00302267)
(0.109625 0.00113281 0.00305796)
(0.1108 0.00299159 0.00302809)
(0.0912111 -0.00232966 0.00247563)
(0.0893525 0.00327527 0.00237838)
(0.109916 -0.00314166 0.00308556)
(0.109393 -0.000830139 0.00313097)
(0.108103 -0.00055555 0.00314188)
(0.107729 -0.000328058 0.00315911)
(0.107721 0.000167146 0.00319456)
(0.108143 0.000400025 0.00313299)
(0.109436 0.000699673 0.0031182)
(0.109879 0.0030462 0.00309542)
(0.089586 -0.0033507 0.00237275)
(0.0882106 0.00352431 0.00222825)
(0.109083 -0.00321606 0.00314)
(0.109189 -0.000524008 0.00307838)
(0.10811 -0.000612295 0.0031548)
(0.107786 -0.000346327 0.00320157)
(0.107698 0.000130576 0.00319962)
(0.108179 0.000395648 0.00315024)
(0.10928 0.000346121 0.00308226)
(0.109016 0.00306457 0.00312706)
(0.0885935 -0.00362742 0.00222693)
(0.08731 0.00340665 0.00206086)
(0.108336 -0.00324426 0.00314105)
(0.109101 -0.000291339 0.00298943)
(0.108159 -0.000690279 0.00312851)
(0.107845 -0.000350638 0.00319953)
(0.107737 5.84886e-05 0.00314544)
(0.108264 0.000406383 0.00313205)
(0.109204 5.17084e-05 0.00299661)
(0.108283 0.00301751 0.00310351)
(0.087868 -0.00353686 0.00206704)
(0.0864645 0.00312314 0.00189538)
(0.10764 -0.00322998 0.00309188)
(0.109016 -0.000136351 0.00290104)
(0.108192 -0.000790158 0.00308806)
(0.10787 -0.000346288 0.00315225)
(0.107774 -4.62192e-05 0.00307949)
(0.108339 0.000420088 0.00310278)
(0.109159 -0.000189111 0.00290515)
(0.107658 0.00293361 0.00304524)
(0.0872333 -0.00330103 0.00190887)
(0.0856468 0.0027847 0.00173543)
(0.10701 -0.00318173 0.00299922)
(0.108931 -5.21572e-05 0.00280369)
(0.108206 -0.00091071 0.00304433)
(0.107869 -0.000345484 0.0030722)
(0.107799 -0.000177659 0.00299993)
(0.108401 0.000431194 0.00306085)
(0.109119 -0.000384651 0.00280737)
(0.107135 0.0028104 0.00295901)
(0.0866884 -0.00302933 0.00175327)
(0.0848399 0.00245386 0.00157906)
(0.106487 -0.00311647 0.0028729)
(0.108853 -2.45043e-05 0.00270334)
(0.108201 -0.00104756 0.00297909)
(0.107866 -0.000358461 0.00296809)
(0.107826 -0.000334025 0.00290354)
(0.108468 0.000425903 0.00299758)
(0.109109 -0.000556376 0.00269703)
(0.106744 0.00265784 0.00285474)
(0.0862413 -0.00278205 0.00160217)
(0.0840058 0.00215055 0.00142374)
(0.106061 -0.00308328 0.00276043)
(0.108773 -5.5411e-05 0.00259597)
(0.108199 -0.00120511 0.00288958)
(0.107873 -0.000393656 0.00285337)
(0.107864 -0.000517041 0.00279155)
(0.108557 0.000395548 0.00292516)
(0.109141 -0.000714709 0.00258134)
(0.106467 0.00249359 0.00275012)
(0.085893 -0.00257188 0.00145817)
(0.083157 0.00185663 0.00127554)
(0.10562 -0.00307061 0.00264215)
(0.108695 -0.000147069 0.00248347)
(0.108202 -0.00138766 0.00279729)
(0.107881 -0.000463037 0.00273443)
(0.107915 -0.000729773 0.00267326)
(0.108655 0.000328709 0.00284272)
(0.109207 -0.000868184 0.00245855)
(0.10625 0.00230807 0.00263983)
(0.0856604 -0.00239855 0.0013265)
(0.0822382 0.00157205 0.00113845)
(0.105173 -0.00306721 0.00250272)
(0.108606 -0.000292594 0.00238588)
(0.108197 -0.00160084 0.00270937)
(0.107892 -0.000579613 0.00261782)
(0.107976 -0.00097969 0.00255765)
(0.108773 0.000214548 0.00275351)
(0.109318 -0.00103825 0.00234471)
(0.10609 0.00209812 0.00252183)
(0.0855498 -0.00227123 0.00121153)
(0.0811966 0.00128862 0.00101337)
(0.104734 -0.00311012 0.00237079)
(0.108474 -0.000501422 0.00228831)
(0.108174 -0.00185738 0.0026238)
(0.1079 -0.000758253 0.00250647)
(0.108048 -0.0012765 0.00244805)
(0.108916 4.23719e-05 0.00266684)
(0.109462 -0.00123709 0.0022376)
(0.106001 0.00186512 0.00240726)
(0.0855778 -0.0021825 0.00111269)
(0.0800099 0.000986015 0.000899968)
(0.104249 -0.00320854 0.00224141)
(0.108313 -0.000786537 0.00219342)
(0.10813 -0.00217455 0.00254229)
(0.107908 -0.00101669 0.00240452)
(0.108132 -0.00163371 0.00234572)
(0.109088 -0.000201987 0.00258274)
(0.109662 -0.00147645 0.00213906)
(0.105979 0.00160469 0.00229924)
(0.0857699 -0.00212146 0.00102931)
(0.078597 0.000660186 0.000797031)
(0.103726 -0.00338188 0.00212193)
(0.10811 -0.00116615 0.00211317)
(0.108059 -0.00257325 0.00246694)
(0.107913 -0.00137817 0.00231399)
(0.108233 -0.00207034 0.00225097)
(0.109299 -0.000538127 0.00250335)
(0.109928 -0.00177278 0.00205199)
(0.106079 0.00129889 0.00219484)
(0.0861089 -0.00207881 0.000962346)
(0.0769122 0.00029911 0.000709552)
(0.103105 -0.00365088 0.00201657)
(0.107852 -0.00166685 0.00204975)
(0.107953 -0.00308069 0.00239899)
(0.107917 -0.00187131 0.00223725)
(0.108359 -0.00261091 0.00216766)
(0.109559 -0.000991252 0.00243129)
(0.110282 -0.002149 0.00197768)
(0.106341 0.000936236 0.0021015)
(0.0866222 -0.00206072 0.00091346)
(0.0748624 -0.000109033 0.000643944)
(0.102353 -0.00404339 0.00193359)
(0.107527 -0.00232217 0.0020064)
(0.107811 -0.00373084 0.00234284)
(0.10792 -0.0025314 0.00217826)
(0.108516 -0.00328757 0.0021002)
(0.109882 -0.00159234 0.0023665)
(0.110744 -0.00263053 0.00192012)
(0.106798 0.000496865 0.00202376)
(0.087362 -0.00207892 0.0008864)
(0.0723762 -0.000583205 0.000615041)
(0.101385 -0.00457886 0.00187398)
(0.107117 -0.00317527 0.00199239)
(0.107628 -0.00456613 0.0023058)
(0.107928 -0.00340288 0.00214209)
(0.108715 -0.00414272 0.00205181)
(0.110292 -0.00238161 0.00231271)
(0.111346 -0.00325048 0.00188175)
(0.107502 -4.49314e-05 0.00196686)
(0.088395 -0.00214227 0.000885538)
(0.0693228 -0.00113127 0.000642178)
(0.100147 -0.00528089 0.00184649)
(0.106601 -0.0042774 0.00201193)
(0.107401 -0.00563943 0.0022961)
(0.107942 -0.0045418 0.00213773)
(0.108972 -0.00523164 0.00202854)
(0.110818 -0.00341428 0.0022803)
(0.112127 -0.00405352 0.00186923)
(0.108509 -0.000725423 0.00193614)
(0.0898147 -0.00226165 0.00091868)
(0.065582 -0.00175511 0.000750846)
(0.0985252 -0.00619277 0.00188286)
(0.105954 -0.00569269 0.00208239)
(0.107127 -0.00702013 0.00232981)
(0.107964 -0.00601904 0.0021783)
(0.109304 -0.00662693 0.00204294)
(0.111491 -0.00476515 0.00228012)
(0.113155 -0.00510567 0.00189261)
(0.10991 -0.00159231 0.00194192)
(0.0917391 -0.00245301 0.000998978)
(0.0610261 -0.00244514 0.000975463)
(0.0963586 -0.00735086 0.00202112)
(0.105122 -0.00749023 0.00222086)
(0.106795 -0.00879073 0.0024241)
(0.10799 -0.00792202 0.00227854)
(0.109726 -0.0084249 0.00211301)
(0.112349 -0.00653292 0.00232461)
(0.114508 -0.00649936 0.00196791)
(0.111822 -0.00271515 0.00199901)
(0.0943328 -0.00274446 0.00114545)
(0.0555495 -0.00318509 0.00134771)
(0.0934203 -0.00874215 0.00228533)
(0.104023 -0.00973177 0.00246511)
(0.106388 -0.0110505 0.00261001)
(0.108012 -0.0103581 0.00246293)
(0.110246 -0.0107543 0.00226339)
(0.113437 -0.00885394 0.00243655)
(0.116277 -0.00837248 0.0021152)
(0.114413 -0.00419921 0.00213315)
(0.0978218 -0.00317852 0.0013855)
(0.0489889 -0.00390085 0.0018782)
(0.0894701 -0.0103242 0.00270566)
(0.102494 -0.0124421 0.00283934)
(0.105841 -0.0139055 0.0029229)
(0.107991 -0.0134618 0.00276769)
(0.110852 -0.0137878 0.00253034)
(0.11479 -0.0119246 0.00265141)
(0.118575 -0.0109325 0.00236413)
(0.117905 -0.00620879 0.0023814)
(0.102546 -0.00382521 0.0017598)
(0.0412461 -0.00444463 0.00250399)
(0.0841154 -0.0119747 0.00328335)
(0.10027 -0.0155735 0.0033889)
(0.105045 -0.0174645 0.00342044)
(0.107862 -0.0174014 0.00324417)
(0.111496 -0.0177578 0.00296406)
(0.116423 -0.0160306 0.00301833)
(0.121536 -0.0145086 0.00276052)
(0.122621 -0.00902821 0.00279699)
(0.108995 -0.00481991 0.00233008)
(0.0322985 -0.00453529 0.00301451)
(0.0769074 -0.0133994 0.00393956)
(0.0968669 -0.0189249 0.0041478)
(0.103725 -0.0217896 0.00417821)
(0.107462 -0.0223908 0.00396843)
(0.112037 -0.0229834 0.00363217)
(0.118266 -0.0215923 0.00360131)
(0.12526 -0.0196343 0.00337019)
(0.128985 -0.013146 0.00345247)
(0.118096 -0.00635236 0.00318294)
(0.0224186 -0.00376218 0.00311033)
(0.0672568 -0.014069 0.00443183)
(0.0914885 -0.0220423 0.00511595)
(0.101395 -0.0267977 0.00531594)
(0.106547 -0.028654 0.00505669)
(0.112267 -0.0298809 0.00461982)
(0.120178 -0.0292088 0.0044787)
(0.129827 -0.0271898 0.00427441)
(0.137654 -0.0195415 0.00445541)
(0.131068 -0.0090992 0.00445437)
(0.0133002 -0.00181019 0.00320827)
(0.0554004 -0.0133017 0.004931)
(0.0832441 -0.0242933 0.00632131)
(0.0971231 -0.0321902 0.00690307)
(0.104501 -0.0363729 0.00662894)
(0.111643 -0.0389792 0.00601331)
(0.121545 -0.0397368 0.00570019)
(0.13481 -0.0385839 0.00551542)
(0.148879 -0.0301813 0.00589844)
(0.152118 -0.0135152 0.0063021)
(0.00717876 -0.000465799 0.00335157)
(0.0416151 -0.0110593 0.00565261)
(0.0712362 -0.0244877 0.0077951)
(0.0897121 -0.0366616 0.00897271)
(0.100629 -0.0450402 0.0087545)
(0.109858 -0.0507058 0.00788533)
(0.12202 -0.0542278 0.00730528)
(0.140039 -0.0558481 0.00709815)
(0.163207 -0.0490236 0.00791894)
(0.18378 -0.0254974 0.00892898)
(0.00414196 -0.00296186 0.000376264)
(0.0285293 -0.0113208 0.00448836)
(0.0563601 -0.0248205 0.00788643)
(0.0776204 -0.0394056 0.0099727)
(0.0923092 -0.0524775 0.0103565)
(0.104546 -0.0636466 0.00953524)
(0.118263 -0.0736955 0.00868484)
(0.142465 -0.0811031 0.00838144)
(0.171844 -0.0899503 0.00970678)
(0.250649 -0.0419069 0.0123775)
(0.0959794 -0.0110451 0.00134791)
(0.100947 -0.00149173 0.00122125)
(0.100657 -0.00116998 0.00116415)
(0.100413 -0.000458771 0.00117596)
(0.100371 -0.000113012 0.00118151)
(0.100371 0.000101925 0.00118139)
(0.100414 0.000449371 0.00117558)
(0.100658 0.00116328 0.00116404)
(0.100953 0.00148691 0.00122172)
(0.0959835 0.0111339 0.00135038)
(0.0937596 -0.00565351 0.00194035)
(0.106214 -0.00247742 0.00199211)
(0.103715 -0.00191776 0.00190239)
(0.102531 -0.000794075 0.00192402)
(0.102289 -0.00024159 0.00193251)
(0.102291 0.000208182 0.00193172)
(0.102535 0.000761694 0.00192282)
(0.103722 0.00188319 0.00190123)
(0.106241 0.00241869 0.00199254)
(0.093747 0.00567904 0.00194045)
(0.0920377 -0.000487204 0.00161222)
(0.109069 -0.0028893 0.00168123)
(0.106098 -0.00162817 0.00159883)
(0.104444 -0.000666893 0.00161956)
(0.104088 -0.000276228 0.00162993)
(0.104092 0.000202979 0.00162837)
(0.104454 0.000594529 0.00161786)
(0.106105 0.00155949 0.00159706)
(0.109065 0.00284099 0.00168039)
(0.0920974 0.000466511 0.00161026)
(0.0903893 0.0022096 0.00114176)
(0.109594 -0.00309992 0.00118244)
(0.107191 -0.0011271 0.00108042)
(0.105551 -0.000516661 0.00110428)
(0.105193 -0.000296154 0.00111664)
(0.105195 0.000182862 0.00111603)
(0.10557 0.000406136 0.00110308)
(0.107212 0.00102838 0.00107929)
(0.109598 0.00302704 0.00118223)
(0.0905149 -0.00225157 0.00113832)
(0.0893911 0.00336642 0.000741071)
(0.109386 -0.00318246 0.000761184)
(0.107714 -0.000692582 0.000622763)
(0.106212 -0.000500166 0.000662242)
(0.105841 -0.00032799 0.000676384)
(0.105852 0.000168626 0.000681576)
(0.106245 0.000344923 0.000661704)
(0.107751 0.000556595 0.000621593)
(0.109407 0.00307392 0.000765635)
(0.089604 -0.00345393 0.000738161)
(0.0889055 0.00376936 0.000402971)
(0.109185 -0.00315132 0.000426687)
(0.108217 -0.000332714 0.000234888)
(0.106807 -0.00055815 0.000284563)
(0.10638 -0.000347927 0.000293414)
(0.106408 0.000126861 0.000306863)
(0.10686 0.000351102 0.000281725)
(0.108275 0.00014641 0.000231137)
(0.109231 0.00300205 0.000433839)
(0.0892373 -0.00389611 0.000407267)
(0.0885326 0.00382602 0.000133851)
(0.109094 -0.00308859 0.000158398)
(0.10874 -3.77606e-05 -9.52125e-05)
(0.107392 -0.000638112 -3.60062e-05)
(0.106912 -0.00034356 -3.88388e-05)
(0.106951 4.11742e-05 -2.35671e-05)
(0.107472 0.000368124 -4.07395e-05)
(0.108832 -0.000213969 -9.90459e-05)
(0.109174 0.00289475 0.000165513)
(0.0890213 -0.00398577 0.000145442)
(0.0881425 0.00371348 -5.96763e-05)
(0.109007 -0.0030268 -4.3446e-05)
(0.109211 0.000180244 -0.000358926)
(0.107911 -0.000740434 -0.000288239)
(0.107406 -0.000325013 -0.000306069)
(0.107452 -7.94991e-05 -0.00029144)
(0.108025 0.000387347 -0.000293652)
(0.109346 -0.000517529 -0.000363448)
(0.109129 0.00278452 -3.82205e-05)
(0.0888414 -0.00391017 -4.43168e-05)
(0.0877119 0.00353055 -0.000188634)
(0.108926 -0.00297589 -0.000188776)
(0.109622 0.000325431 -0.000563261)
(0.108354 -0.000866518 -0.000475254)
(0.107844 -0.000308014 -0.000508158)
(0.1079 -0.000225763 -0.00049562)
(0.108512 0.000404867 -0.00048033)
(0.109813 -0.000774645 -0.00056831)
(0.109118 0.00265796 -0.000186261)
(0.0886724 -0.00377095 -0.000169469)
(0.0872792 0.00331144 -0.000271239)
(0.108835 -0.00292572 -0.000292864)
(0.109997 0.000405686 -0.00072149)
(0.108746 -0.00101165 -0.000610573)
(0.108244 -0.000303111 -0.000660581)
(0.108315 -0.000395658 -0.000650212)
(0.10896 0.000408782 -0.000616851)
(0.110263 -0.00100244 -0.000728893)
(0.10916 0.00251874 -0.000295191)
(0.0885446 -0.00361629 -0.000248753)
(0.086813 0.00307993 -0.000330592)
(0.108748 -0.00288059 -0.00036386)
(0.110345 0.000424352 -0.000840943)
(0.109104 -0.00117335 -0.000710148)
(0.10862 -0.00031963 -0.000776745)
(0.108714 -0.000590508 -0.000768479)
(0.109391 0.000386756 -0.000717461)
(0.110711 -0.00121059 -0.000853424)
(0.109245 0.0023548 -0.000369311)
(0.0884803 -0.0034621 -0.000303573)
(0.0862867 0.0028368 -0.00037443)
(0.108649 -0.00285207 -0.000402557)
(0.110657 0.000384027 -0.000931107)
(0.109429 -0.00135588 -0.000783253)
(0.108976 -0.000369941 -0.00086385)
(0.1091 -0.000814146 -0.000859032)
(0.109812 0.000328559 -0.000788545)
(0.111156 -0.00141239 -0.000950564)
(0.109384 0.00217041 -0.000416067)
(0.0884686 -0.00332025 -0.000341968)
(0.085662 0.00258311 -0.000397049)
(0.108536 -0.00285499 -0.000427475)
(0.110927 0.000286913 -0.001001)
(0.109721 -0.00156834 -0.000835202)
(0.10931 -0.000467228 -0.000928256)
(0.109475 -0.00107241 -0.000927667)
(0.110226 0.000224935 -0.00083839)
(0.111607 -0.001619 -0.00102941)
(0.109571 0.00196828 -0.000449092)
(0.0885215 -0.00319277 -0.00036407)
(0.0849126 0.00231355 -0.000403741)
(0.108391 -0.00290505 -0.000441927)
(0.11115 0.000122896 -0.00105084)
(0.109981 -0.00182245 -0.000870872)
(0.109623 -0.000625323 -0.000974602)
(0.10984 -0.00137358 -0.000979153)
(0.110641 6.49927e-05 -0.000872266)
(0.112069 -0.00184288 -0.00109112)
(0.109813 0.00174153 -0.000472092)
(0.088659 -0.00308321 -0.000376101)
(0.0840048 0.00201899 -0.000399806)
(0.108198 -0.00300734 -0.000442365)
(0.111323 -0.000120288 -0.00108408)
(0.110209 -0.00213187 -0.000893609)
(0.109918 -0.000860921 -0.00100653)
(0.110204 -0.00173059 -0.00101698)
(0.111068 -0.000164668 -0.000893557)
(0.11256 -0.00209838 -0.00113901)
(0.110131 0.00148855 -0.000485821)
(0.0889 -0.00299583 -0.000380837)
(0.0828814 0.00169344 -0.000384839)
(0.107952 -0.00317426 -0.000433791)
(0.111443 -0.000458896 -0.00110065)
(0.110407 -0.00251575 -0.000904651)
(0.110199 -0.00119558 -0.00102518)
(0.110575 -0.00216103 -0.0010433)
(0.111521 -0.000481593 -0.000905391)
(0.113095 -0.00240187 -0.00117567)
(0.110541 0.00119608 -0.000494687)
(0.0892809 -0.00293071 -0.000373279)
(0.0814778 0.00132688 -0.00035801)
(0.107632 -0.00342851 -0.000412462)
(0.111504 -0.000916834 -0.00109902)
(0.110575 -0.00299884 -0.00090364)
(0.110469 -0.00165557 -0.00103069)
(0.110961 -0.00268778 -0.00105875)
(0.112014 -0.000908573 -0.000908234)
(0.113694 -0.00277456 -0.00120238)
(0.111073 0.000849026 -0.000502538)
(0.0898331 -0.002893 -0.000353859)
(0.0797233 0.000907231 -0.000315946)
(0.107206 -0.00379101 -0.000373678)
(0.111499 -0.00152512 -0.00107491)
(0.110711 -0.00361142 -0.000889299)
(0.110733 -0.00227353 -0.00102128)
(0.111373 -0.00334087 -0.00106175)
(0.112567 -0.00147411 -0.000901393)
(0.114382 -0.00323991 -0.0012168)
(0.111763 0.000433111 -0.000507491)
(0.090605 -0.0028906 -0.000324919)
(0.0775293 0.000425289 -0.000248753)
(0.106625 -0.00428874 -0.00030874)
(0.111422 -0.00232236 -0.00102261)
(0.110817 -0.00439196 -0.000857757)
(0.110995 -0.00309095 -0.000993454)
(0.111825 -0.00415947 -0.00104923)
(0.113202 -0.00221671 -0.000883365)
(0.115194 -0.00382788 -0.00121542)
(0.112651 -8.08227e-05 -0.00050613)
(0.0916672 -0.00292795 -0.000286268)
(0.0748074 -0.000130666 -0.00013985)
(0.105818 -0.00495009 -0.000205776)
(0.111261 -0.00335617 -0.000931938)
(0.110893 -0.00538793 -0.000801839)
(0.11126 -0.00415888 -0.000941036)
(0.112331 -0.00519389 -0.00101604)
(0.113946 -0.00318757 -0.000850008)
(0.116173 -0.00458291 -0.00119487)
(0.113804 -0.000727898 -0.000495199)
(0.0930983 -0.00301661 -0.000233538)
(0.071459 -0.000764311 3.06281e-05)
(0.104692 -0.00579406 -4.57935e-05)
(0.111 -0.00467982 -0.000786972)
(0.110942 -0.00665674 -0.000709615)
(0.111536 -0.00553957 -0.000853559)
(0.112907 -0.00650935 -0.00095355)
(0.114836 -0.00445378 -0.000793124)
(0.117372 -0.00556491 -0.00114931)
(0.11531 -0.00154937 -0.000468895)
(0.0950112 -0.00317183 -0.000158223)
(0.0673838 -0.00146298 0.0002906)
(0.103125 -0.00684319 0.000197999)
(0.110615 -0.00634971 -0.000564375)
(0.110964 -0.00826791 -0.000562627)
(0.111826 -0.00730789 -0.000716057)
(0.11357 -0.00819052 -0.000848085)
(0.115909 -0.00610516 -0.000701071)
(0.118862 -0.00685691 -0.00106734)
(0.117282 -0.00260837 -0.000416523)
(0.0975613 -0.00341838 -4.77287e-05)
(0.0625307 -0.0022048 0.000675353)
(0.10095 -0.00808903 0.000556064)
(0.110057 -0.00840976 -0.000236619)
(0.110958 -0.0102986 -0.000334914)
(0.112129 -0.00955245 -0.000507425)
(0.114331 -0.0103477 -0.000679873)
(0.117209 -0.00826493 -0.000557573)
(0.120734 -0.00858072 -0.00093166)
(0.119876 -0.00400142 -0.000323056)
(0.100971 -0.00379468 0.000115548)
(0.0568559 -0.00292675 0.00121661)
(0.0979946 -0.00951169 0.00106357)
(0.109239 -0.0108798 0.000230039)
(0.110907 -0.0128313 1.0523e-05)
(0.112434 -0.0123773 -0.000197621)
(0.115185 -0.0131246 -0.000421889)