/*--------------------------------*- C++ -*----------------------------------*\
| =========                 |                                                 |
| \\      /  F ield         | OpenFOAM: The Open Source CFD Toolbox           |
|  \\    /   O peration     | Version:  4.1                                   |
|   \\  /    A nd           | Web:      www.OpenFOAM.org                      |
|    \\/     M anipulation  |                                                 |
\*---------------------------------------------------------------------------*/
FoamFile
{
    version     2.0;
    format      ascii;
    class       volScalarField;
    location    "1900";
    object      epsilon;
}
// * * * * * * * * * * * * * * * * * * * * * * * * * * * * * * * * * * * * * //

dimensions      [0 2 -3 0 0 0 0];

internalField   nonuniform List<scalar> 
12000
(
0.319823
0.312198
0.310908
0.310607
0.310534
0.310535
0.310611
0.310908
0.312043
0.319642
0.0651744
0.0637654
0.0628439
0.0624031
0.0622691
0.0622698
0.0624055
0.062855
0.0637893
0.0652461
0.0176573
0.0177564
0.0173728
0.0171402
0.0170548
0.0170553
0.0171411
0.0173757
0.0177607
0.0176665
0.00615313
0.00632471
0.00621828
0.00611164
0.00606539
0.00606556
0.00611235
0.00622064
0.00633316
0.00615834
0.00263366
0.00274208
0.00272411
0.00267556
0.00265002
0.00265017
0.00267581
0.00272689
0.00274265
0.00263461
0.0013225
0.00138222
0.00139469
0.00137055
0.001356
0.00135617
0.00137129
0.00139758
0.00139066
0.00132515
0.000751212
0.000795368
0.000803608
0.000790378
0.000781236
0.000781607
0.000791907
0.000806448
0.00078911
0.000752448
0.00046584
0.000490549
0.000507141
0.000498425
0.000492459
0.000492631
0.000499004
0.000507755
0.00048918
0.000468146
0.000310555
0.000331693
0.000341951
0.000338072
0.000332646
0.000332907
0.000337562
0.000344194
0.000329522
0.00031296
0.000218653
0.000236124
0.000243847
0.000240351
0.000238388
0.000238476
0.000240102
0.000244592
0.00023466
0.00022126
0.000160815
0.000175132
0.000181694
0.000179635
0.000177114
0.000177446
0.000179816
0.00018306
0.000175624
0.000163718
0.000122496
0.000134422
0.000140748
0.000139116
0.000137191
0.00013723
0.000139596
0.00014174
0.0001356
0.000125653
9.61029e-05
0.000106549
0.000111936
0.000110887
0.000109504
0.000109559
0.00011132
0.000113131
0.000107717
9.94485e-05
7.72251e-05
8.65352e-05
9.13506e-05
9.04632e-05
8.96387e-05
8.97344e-05
9.09441e-05
9.24647e-05
8.78119e-05
8.07867e-05
6.32757e-05
7.16976e-05
7.60302e-05
7.54139e-05
7.46798e-05
7.49152e-05
7.58712e-05
7.7239e-05
7.32055e-05
6.71216e-05
5.26631e-05
6.0359e-05
6.43868e-05
6.39581e-05
6.34105e-05
6.37234e-05
6.45678e-05
6.57013e-05
6.21428e-05
5.68566e-05
4.43748e-05
5.1509e-05
5.53129e-05
5.5096e-05
5.47137e-05
5.50241e-05
5.5792e-05
5.68293e-05
5.36498e-05
4.90094e-05
3.77369e-05
4.44832e-05
4.81068e-05
4.8068e-05
4.78661e-05
4.82155e-05
4.89339e-05
4.98557e-05
4.69905e-05
4.28885e-05
3.22812e-05
3.87555e-05
4.22726e-05
4.23917e-05
4.23261e-05
4.26892e-05
4.33965e-05
4.43358e-05
4.17849e-05
3.81055e-05
2.76722e-05
3.40145e-05
3.74523e-05
3.77514e-05
3.78517e-05
3.8283e-05
3.89534e-05
3.98604e-05
3.7603e-05
3.42773e-05
2.36548e-05
2.99206e-05
3.34076e-05
3.38744e-05
3.40664e-05
3.45241e-05
3.52587e-05
3.62602e-05
3.43497e-05
3.13017e-05
2.00263e-05
2.62974e-05
2.99278e-05
3.06186e-05
3.09701e-05
3.15611e-05
3.22715e-05
3.3266e-05
3.16717e-05
2.88714e-05
1.66214e-05
2.29244e-05
2.68278e-05
2.77774e-05
2.81992e-05
2.88537e-05
2.96927e-05
3.08806e-05
2.96858e-05
2.70901e-05
1.32762e-05
1.96652e-05
2.3996e-05
2.53096e-05
2.59683e-05
2.6772e-05
2.75998e-05
2.88291e-05
2.79835e-05
2.56262e-05
9.8676e-06
1.62104e-05
2.12042e-05
2.29836e-05
2.37321e-05
2.46335e-05
2.57304e-05
2.72672e-05
2.68664e-05
2.47737e-05
6.19024e-06
1.25432e-05
1.82722e-05
2.08055e-05
2.1973e-05
2.30646e-05
2.40968e-05
2.5815e-05
2.58024e-05
2.41524e-05
2.59094e-06
8.32585e-06
1.49059e-05
1.81803e-05
1.97521e-05
2.11348e-05
2.26309e-05
2.48059e-05
2.52912e-05
2.40848e-05
1.33788e-06
4.51059e-06
1.08091e-05
1.54496e-05
1.78528e-05
1.95122e-05
2.08613e-05
2.35253e-05
2.48376e-05
2.46543e-05
2.02897e-06
3.51793e-06
5.8614e-06
9.56416e-06
1.42736e-05
1.72498e-05
1.93522e-05
2.22941e-05
2.47928e-05
2.49388e-05
4.25527e-06
6.18721e-06
6.54458e-06
7.1766e-06
8.15195e-06
1.15238e-05
1.55198e-05
2.01162e-05
2.37746e-05
2.74571e-05
0.312195
0.714927
0.701476
0.701097
0.701055
0.701055
0.701098
0.701477
0.715094
0.312406
0.0637621
0.0518335
0.0347864
0.0343069
0.0342832
0.0342827
0.0343106
0.0348011
0.0522484
0.0642006
0.0177534
0.00708987
0.00284551
0.00277322
0.00278175
0.00278462
0.00278435
0.00285166
0.00736273
0.0179089
0.00632232
0.00169684
0.000452616
0.000438691
0.000439337
0.000439525
0.000439084
0.000455692
0.00176602
0.00640642
0.00274006
0.000638097
0.00013079
0.000129127
0.000126853
0.000126132
0.000124689
0.00013173
0.000685026
0.0027775
0.00138042
0.000298563
5.3335e-05
5.19668e-05
5.43874e-05
5.41042e-05
5.51233e-05
5.49602e-05
0.000287727
0.00140997
0.000793833
0.000178816
2.867e-05
2.82849e-05
2.7169e-05
2.72157e-05
2.63857e-05
2.66463e-05
0.000188192
0.000799098
0.000489074
0.000125068
1.56378e-05
2.55827e-05
2.40593e-05
2.35339e-05
2.42686e-05
2.33712e-05
0.000135366
0.000495037
0.000330361
9.14573e-05
1.7835e-05
2.17262e-05
2.18555e-05
2.14291e-05
2.24269e-05
2.14158e-05
9.80363e-05
0.000333127
0.00023483
5.53926e-05
1.67823e-05
1.92303e-05
1.76975e-05
1.74456e-05
2.08638e-05
1.81395e-05
5.96471e-05
0.000236747
0.000173872
5.31382e-05
1.52678e-05
1.20192e-05
1.52487e-05
1.48435e-05
1.29743e-05
1.50988e-05
5.69299e-05
0.000176995
0.000133143
3.78009e-05
8.37491e-06
1.51943e-05
8.35485e-06
8.6188e-06
1.7751e-05
9.01227e-06
4.5787e-05
0.000136666
0.000105236
3.09062e-05
1.26178e-05
1.04739e-05
1.29869e-05
1.16532e-05
1.24092e-05
1.02525e-05
3.46992e-05
0.00010866
8.51551e-05
2.68662e-05
8.68835e-06
7.74669e-06
8.53978e-06
8.12497e-06
9.73179e-06
7.82983e-06
2.6472e-05
8.87193e-05
7.02362e-05
2.34451e-05
6.56669e-06
6.60608e-06
6.04357e-06
6.24285e-06
7.90011e-06
6.44834e-06
2.18514e-05
7.41198e-05
5.87955e-05
2.04768e-05
5.45158e-06
6.18576e-06
5.29026e-06
5.21591e-06
7.582e-06
5.80451e-06
1.87293e-05
6.3108e-05
4.9825e-05
1.83134e-05
5.05417e-06
5.77533e-06
4.48454e-06
4.95205e-06
6.98161e-06
5.40837e-06
1.63157e-05
5.44721e-05
4.26616e-05
1.68179e-05
4.83624e-06
5.30583e-06
4.41772e-06
4.5871e-06
6.31878e-06
5.01341e-06
1.43976e-05
4.77777e-05
3.6794e-05
1.55984e-05
4.35909e-06
4.91223e-06
4.23047e-06
4.28114e-06
5.72778e-06
4.75202e-06
1.2741e-05
4.22679e-05
3.1909e-05
1.48994e-05
4.34349e-06
4.58885e-06
4.03564e-06
3.98566e-06
5.16648e-06
4.52447e-06
1.13877e-05
3.8022e-05
2.77008e-05
1.44109e-05
4.44493e-06
4.36025e-06
3.89176e-06
3.75326e-06
4.70845e-06
4.3095e-06
1.01773e-05
3.42962e-05
2.39884e-05
1.43651e-05
4.65542e-06
4.17526e-06
3.78569e-06
3.62102e-06
4.42518e-06
4.15397e-06
9.19011e-06
3.15463e-05
2.06375e-05
1.44835e-05
4.98639e-06
4.09642e-06
3.69003e-06
3.52293e-06
4.11935e-06
4.0233e-06
8.32104e-06
2.89026e-05
1.75025e-05
1.48684e-05
5.86336e-06
4.16545e-06
3.74408e-06
3.54577e-06
4.03462e-06
4.00311e-06
7.59972e-06
2.71062e-05
1.44356e-05
1.52043e-05
6.79115e-06
4.43574e-06
3.92571e-06
3.5912e-06
4.02232e-06
4.00436e-06
7.08631e-06
2.51564e-05
1.13356e-05
1.56359e-05
8.3338e-06
4.89696e-06
4.12383e-06
3.8567e-06
4.06216e-06
4.34699e-06
6.57708e-06
2.38717e-05
8.19612e-06
1.67935e-05
1.03839e-05
5.71871e-06
4.71013e-06
4.13007e-06
4.55309e-06
4.54424e-06
6.72041e-06
2.24089e-05
5.16838e-06
1.84239e-05
1.3224e-05
7.07701e-06
5.19183e-06
4.98925e-06
4.84703e-06
5.46521e-06
6.54407e-06
2.11805e-05
3.57881e-06
2.16746e-05
1.82974e-05
9.933e-06
6.93164e-06
5.51805e-06
6.04838e-06
6.00544e-06
9.80661e-06
1.99343e-05
3.7492e-06
2.42284e-05
2.5155e-05
1.65195e-05
9.43254e-06
7.21644e-06
6.87191e-06
7.79789e-06
1.29541e-05
1.88263e-05
0.310906
0.70148
0.682208
0.681924
0.681854
0.681862
0.681916
0.682209
0.701565
0.311358
0.062841
0.0347991
0.0197366
0.0192473
0.0188525
0.0191132
0.0188829
0.019032
0.0347476
0.0633475
0.0173699
0.00284963
0.00063978
0.000565754
0.000378548
0.00051298
0.000376411
0.000305766
0.00284163
0.0175392
0.0062159
0.000454761
0.00015516
0.000247978
8.92043e-07
0.000192308
9.18447e-07
7.03072e-07
0.000448334
0.00629618
0.002722
0.000130892
1.80267e-05
0.000106154
3.45279e-08
0.00010568
3.46318e-08
3.65589e-08
0.000132077
0.00275865
0.00139267
5.5343e-05
2.22404e-06
1.04965e-05
2.10244e-08
3.64883e-05
3.12163e-08
2.10244e-08
5.30078e-05
0.00141131
0.000802449
2.63506e-05
4.61218e-07
3.47973e-06
9.85953e-08
1.10777e-05
9.27909e-08
1.61311e-08
2.79929e-05
0.000812214
0.000504708
2.17225e-05
2.41081e-07
8.69844e-07
1.22556e-07
3.83804e-06
9.02363e-08
1.71433e-08
1.51684e-05
0.000511877
0.000340833
2.03617e-05
2.64176e-07
5.98141e-07
1.11565e-07
2.17481e-06
1.57648e-07
2.80486e-08
1.55246e-05
0.00034528
0.000242624
1.84386e-05
3.14999e-07
2.88761e-07
1.64397e-07
8.0194e-07
1.90228e-07
5.93464e-08
1.58524e-05
0.000245657
0.000180854
1.16193e-05
2.72042e-07
1.50273e-07
1.81342e-07
3.73561e-07
2.06858e-07
6.07009e-08
1.44086e-05
0.000183518
0.00013952
1.42003e-05
2.67809e-07
1.17653e-07
1.87893e-07
1.87405e-07
1.32984e-07
9.04284e-08
8.55648e-06
0.000142001
0.000110705
1.02942e-05
4.75053e-07
1.84674e-07
9.66658e-08
1.07054e-07
3.07504e-07
8.04416e-08
1.15654e-05
0.000113109
8.98877e-05
8.0466e-06
3.15068e-07
1.68122e-07
2.40559e-07
8.1921e-08
1.96738e-07
9.88169e-08
7.98836e-06
9.23537e-05
7.44619e-05
7.5151e-06
2.24774e-07
1.56415e-07
1.57505e-07
1.0274e-07
2.1412e-07
9.92515e-08
6.5303e-06
7.69756e-05
6.26809e-05
7.04127e-06
2.17561e-07
1.48354e-07
1.08472e-07
6.25006e-08
2.04431e-07
7.50505e-08
5.48527e-06
6.54014e-05
5.34314e-05
6.9928e-06
2.33477e-07
1.31038e-07
8.04479e-08
1.19158e-07
1.72443e-07
8.27849e-08
4.61479e-06
5.63337e-05
4.60344e-05
7.05939e-06
2.94492e-07
1.26334e-07
8.08256e-08
8.9228e-08
1.64252e-07
8.73103e-08
4.35549e-06
4.93612e-05
3.9976e-05
7.21e-06
3.70371e-07
1.28076e-07
7.90851e-08
8.60734e-08
1.56903e-07
8.6901e-08
4.02812e-06
4.34993e-05
3.48988e-05
7.46429e-06
4.70841e-07
1.39523e-07
8.11839e-08
7.74032e-08
1.56561e-07
9.15309e-08
3.73021e-06
3.90164e-05
3.05223e-05
7.7686e-06
5.82156e-07
1.47812e-07
8.80682e-08
7.70869e-08
1.51911e-07
1.0026e-07
3.38523e-06
3.48987e-05
2.66774e-05
8.24039e-06
7.76546e-07
1.74023e-07
9.97281e-08
8.34836e-08
1.50774e-07
1.09142e-07
3.04812e-06
3.18946e-05
2.31729e-05
8.60492e-06
9.59952e-07
1.96509e-07
1.11663e-07
8.90415e-08
1.51269e-07
1.21515e-07
2.6765e-06
2.87273e-05
1.99946e-05
9.39688e-06
1.29709e-06
2.60766e-07
1.39946e-07
1.06637e-07
1.53098e-07
1.29146e-07
2.33102e-06
2.66181e-05
1.69019e-05
1.00562e-05
1.65933e-06
3.26352e-07
1.61024e-07
1.03458e-07
1.64367e-07
1.51705e-07
1.98479e-06
2.39129e-05
1.39779e-05
1.11722e-05
2.27017e-06
4.76491e-07
2.22752e-07
1.60557e-07
1.81985e-07
1.66957e-07
1.67459e-06
2.22981e-05
1.11799e-05
1.16481e-05
3.4496e-06
7.06249e-07
2.76326e-07
1.82655e-07
2.02405e-07
2.13249e-07
1.4065e-06
1.96182e-05
8.50731e-06
1.25554e-05
5.24084e-06
1.21556e-06
4.76395e-07
2.86438e-07
2.76383e-07
2.51687e-07
1.15877e-06
1.80636e-05
6.15319e-06
1.40823e-05
7.53225e-06
2.07097e-06
6.63092e-07
3.66918e-07
3.42142e-07
3.39843e-07
1.1152e-06
1.46111e-05
4.60652e-06
1.60881e-05
1.15912e-05
3.8672e-06
1.45305e-06
6.55877e-07
5.04938e-07
4.46019e-07
1.38314e-06
1.25789e-05
0.310605
0.701102
0.681925
0.681609
0.681545
0.681532
0.68161
0.681913
0.701183
0.311073
0.0624003
0.0343155
0.0193068
0.0190273
0.0190326
0.0185577
0.0191414
0.0188745
0.0342555
0.0629027
0.0171372
0.00278913
0.000600601
0.000590623
0.00061857
0.000335173
0.000655832
0.000370828
0.00276475
0.0172994
0.0061088
0.000439818
2.19287e-05
1.24374e-06
7.95292e-07
4.97271e-07
9.05408e-07
1.04969e-06
0.000436342
0.00618393
0.00267304
0.000126275
1.0341e-05
2.4701e-08
9.03976e-11
2.38807e-10
7.86156e-10
1.7181e-08
0.000126856
0.00270652
0.00136867
5.39375e-05
6.44341e-06
6.04547e-08
1.22138e-12
4.47059e-11
6.23728e-12
8.73114e-09
5.35529e-05
0.00138495
0.000788908
2.76426e-05
4.25104e-06
7.78245e-09
6.69829e-11
1.02271e-08
9.16709e-12
4.91354e-09
2.66885e-05
0.000798162
0.000496675
2.35921e-05
2.21125e-06
1.58903e-09
1.14198e-10
2.13893e-09
5.25878e-11
4.06249e-09
1.83889e-05
0.000503088
0.000335938
2.3253e-05
1.21238e-06
1.06857e-09
1.26089e-10
1.58575e-09
1.73326e-10
1.04149e-08
1.89116e-05
0.000340166
0.000239134
1.70429e-05
5.77059e-07
9.89897e-10
1.1441e-10
4.47873e-10
3.49613e-10
8.40813e-09
1.55787e-05
0.000243685
0.000177604
2.01141e-05
4.03272e-07
6.51725e-10
1.48779e-10
3.69637e-10
2.32579e-10
1.95893e-08
1.36112e-05
0.000181603
0.000136822
1.54495e-05
2.97596e-07
8.36179e-10
1.20825e-10
4.00528e-10
1.18823e-09
1.30337e-08
8.40691e-06
0.000140816
0.000107944
1.26825e-05
1.33819e-07
1.13252e-09
2.27269e-10
2.50735e-10
1.07979e-09
1.51718e-08
1.09896e-05
0.000112666
8.81777e-05
1.02447e-05
2.68359e-07
2.13481e-09
3.1877e-10
2.73498e-10
1.01398e-09
1.20063e-08
7.52975e-06
9.24703e-05
7.3231e-05
9.40386e-06
2.59367e-07
3.93914e-09
8.58129e-10
1.69319e-10
8.641e-10
6.90767e-09
5.77773e-06
7.72855e-05
6.16667e-05
9.01703e-06
2.78286e-07
5.30687e-09
6.19882e-10
5.63469e-10
8.37235e-10
5.00529e-09
4.66995e-06
6.58992e-05
5.26558e-05
8.36613e-06
3.10022e-07
7.25619e-09
4.53992e-10
2.97584e-10
8.52579e-10
1.15502e-08
4.48448e-06
5.68776e-05
4.53781e-05
8.02326e-06
3.58049e-07
9.56247e-09
5.78887e-10
4.3951e-10
9.23046e-10
1.38449e-08
4.11706e-06
4.99462e-05
3.93961e-05
7.77483e-06
4.39788e-07
1.17598e-08
7.64743e-10
3.38788e-10
1.02704e-09
1.44255e-08
3.73009e-06
4.41066e-05
3.43868e-05
7.76261e-06
5.06664e-07
2.11208e-08
8.06781e-10
3.65022e-10
1.10308e-09
1.64839e-08
3.36029e-06
3.95912e-05
3.00654e-05
7.90839e-06
6.7285e-07
3.10902e-08
2.06242e-09
4.7112e-10
1.28275e-09
1.57326e-08
2.96765e-06
3.54551e-05
2.62648e-05
8.15547e-06
7.46116e-07
6.73931e-08
3.1837e-09
6.48046e-10
1.34756e-09
1.66338e-08
2.61718e-06
3.23484e-05
2.28439e-05
8.31618e-06
8.96075e-07
7.94886e-08
8.41393e-09
9.24641e-10
1.61122e-09
1.57281e-08
2.24471e-06
2.91541e-05
1.97206e-05
8.98119e-06
1.16591e-06
1.42711e-07
1.13521e-08
2.11053e-09
1.61762e-09
1.49467e-08
1.92925e-06
2.68928e-05
1.67465e-05
9.6229e-06
1.4867e-06
1.87891e-07
2.60608e-08
3.49296e-09
2.99745e-09
1.26956e-08
1.58335e-06
2.41061e-05
1.39212e-05
1.06714e-05
1.95466e-06
3.10284e-07
3.88053e-08
5.9307e-09
2.98221e-09
1.09537e-08
1.31588e-06
2.23161e-05
1.12283e-05
1.10482e-05
3.03082e-06
4.77049e-07
8.31715e-08
1.58372e-08
7.32503e-09
1.05526e-08
1.0014e-06
1.94948e-05
8.67885e-06
1.14523e-05
4.34445e-06
7.87861e-07
1.35757e-07
2.54822e-08
8.3579e-09
1.16391e-08
8.05484e-07
1.74694e-05
6.37343e-06
1.22467e-05
5.97952e-06
1.34504e-06
2.81211e-07
6.95126e-08
1.9981e-08
1.45029e-08
5.36922e-07
1.42035e-05
4.36637e-06
1.30263e-05
7.96195e-06
2.11395e-06
5.24226e-07
1.31842e-07
3.90415e-08
1.78191e-08
5.15181e-07
1.07017e-05
0.310532
0.701059
0.681859
0.681545
0.681465
0.681466
0.681534
0.681869
0.701142
0.311
0.0622658
0.0342928
0.019022
0.0190348
0.0185114
0.0184616
0.0187007
0.0193695
0.0342255
0.0627665
0.0170514
0.0027911
0.000469672
0.000620175
0.000329298
0.000302867
0.00041481
0.000664752
0.0027787
0.0172116
0.00606221
0.000440616
4.55544e-06
7.68898e-07
4.60398e-07
3.1303e-07
9.70971e-07
1.4304e-06
0.000436876
0.00613525
0.00264726
0.000127164
2.0934e-07
8.4861e-11
2.64516e-10
6.68634e-11
6.14441e-09
2.75549e-08
0.000125346
0.00267984
0.0013537
5.38575e-05
2.90054e-07
4.75693e-11
2.25938e-13
1.0324e-13
4.81829e-12
9.2368e-09
5.34597e-05
0.00136934
0.000778828
2.91611e-05
2.25786e-07
2.54954e-10
5.80036e-13
6.93432e-14
2.5624e-13
5.41006e-09
2.62791e-05
0.000788477
0.000491144
2.26199e-05
1.43369e-07
3.50586e-10
2.27861e-14
2.44377e-13
2.34472e-13
3.88571e-09
1.75261e-05
0.000496468
0.000330932
2.10335e-05
1.34309e-07
4.70647e-10
1.12434e-12
3.34828e-13
4.00332e-13
5.93917e-09
1.94547e-05
0.000335315
0.000236448
1.94016e-05
1.56869e-07
5.42862e-10
6.77216e-13
8.27342e-14
2.23944e-13
6.56099e-09
1.71877e-05
0.000239395
0.000175219
1.23407e-05
1.87042e-07
1.04284e-09
1.12634e-12
9.80357e-14
3.81887e-13
4.41428e-09
1.23168e-05
0.000179843
0.000135278
1.69412e-05
2.47365e-07
1.45649e-09
3.32887e-12
2.45019e-13
2.33057e-13
1.48623e-08
1.27037e-05
0.000138432
0.000107664
1.20559e-05
2.70038e-07
2.12677e-09
9.5058e-12
8.52803e-14
2.30815e-13
6.82221e-09
8.00396e-06
0.000110808
8.74392e-05
9.17523e-06
1.36312e-07
2.15171e-09
2.85318e-11
7.09701e-14
2.58774e-12
2.62232e-08
1.02055e-05
9.09719e-05
7.24637e-05
7.9982e-06
2.97898e-07
6.07593e-09
5.34999e-11
9.92632e-13
3.00335e-12
1.2996e-08
6.71323e-06
7.60068e-05
6.10207e-05
7.44439e-06
2.88089e-07
4.30902e-09
4.38604e-11
6.56323e-13
1.1984e-12
6.95921e-09
5.26988e-06
6.47502e-05
5.20753e-05
7.21927e-06
3.0674e-07
5.04795e-09
8.89197e-11
3.18327e-13
1.43169e-12
4.28155e-09
4.16403e-06
5.59148e-05
4.48964e-05
6.9686e-06
2.82235e-07
5.42345e-09
1.28415e-10
3.24202e-12
5.34767e-12
5.60636e-09
4.03374e-06
4.91055e-05
3.89799e-05
6.95013e-06
3.23782e-07
1.01805e-08
1.39286e-10
5.26234e-12
8.86396e-12
1.00424e-08
3.69097e-06
4.33521e-05
3.40454e-05
6.97423e-06
3.92708e-07
1.2004e-08
6.53304e-10
1.66351e-11
1.54667e-11
1.26271e-08
3.35686e-06
3.89865e-05
2.98014e-05
7.19635e-06
5.03567e-07
2.71955e-08
1.16684e-09
4.21915e-11
1.98701e-11
1.3409e-08
2.98921e-06
3.4881e-05
2.60768e-05
7.506e-06
6.65468e-07
3.99569e-08
2.43111e-09
2.84566e-11
2.38714e-11
1.36257e-08
2.66268e-06
3.19249e-05
2.27223e-05
7.97658e-06
8.74464e-07
7.94553e-08
4.11665e-09
3.68049e-10
4.90031e-11
1.2529e-08
2.29287e-06
2.86826e-05
1.96186e-05
8.61865e-06
1.16528e-06
1.13499e-07
1.24133e-08
3.15878e-10
7.25484e-11
1.16692e-08
1.98138e-06
2.65856e-05
1.66992e-05
9.37781e-06
1.56131e-06
1.97692e-07
1.85498e-08
2.41756e-09
2.2435e-10
9.96757e-09
1.62359e-06
2.37226e-05
1.38871e-05
1.05377e-05
2.13053e-06
3.12266e-07
4.64497e-08
3.76658e-09
2.89445e-10
8.61795e-09
1.34847e-06
2.20475e-05
1.11794e-05
1.10154e-05
3.20207e-06
5.31783e-07
7.7024e-08
1.29773e-08
1.88497e-09
5.94148e-09
1.01847e-06
1.91739e-05
8.56613e-06
1.14901e-05
4.4663e-06
8.73119e-07
1.71968e-07
2.46022e-08
1.48912e-09
6.33383e-09
8.1121e-07
1.73491e-05
6.16585e-06
1.22613e-05
6.06094e-06
1.40361e-06
2.94347e-07
6.59325e-08
1.54779e-08
3.82909e-09
5.33977e-07
1.34888e-05
4.00948e-06
1.3117e-05
8.0427e-06
2.12068e-06
5.66445e-07
1.34262e-07
3.13684e-08
1.98053e-08
4.9699e-07
1.13173e-05
0.310533
0.701059
0.681817
0.681532
0.681477
0.681467
0.681549
0.681851
0.701142
0.310999
0.0622658
0.0342984
0.0188063
0.018632
0.0188599
0.0184728
0.0191075
0.0187675
0.0342298
0.0627658
0.0170513
0.00278422
0.000285073
0.000374689
0.000536301
0.000307369
0.000655334
0.000331392
0.00277913
0.0172107
0.00606215
0.000441239
5.47751e-06
5.99675e-07
5.48531e-07
3.29949e-07
8.48152e-07
8.39936e-07
0.000436761
0.00613443
0.00264721
0.000126077
2.07986e-06
1.53582e-09
3.42028e-10
3.32895e-10
2.47173e-10
2.60503e-08
0.000124948
0.00267936
0.00135328
5.62068e-05
1.12449e-06
1.80947e-09
1.17011e-12
2.0204e-13
3.71362e-12
1.93712e-08
5.37137e-05
0.00136916
0.000779773
2.72867e-05
7.47863e-07
8.05696e-09
3.03216e-11
6.83882e-15
7.53957e-12
2.23468e-08
2.5937e-05
0.000788554
0.000489894
2.55914e-05
5.56059e-07
4.14766e-09
4.00835e-11
1.50361e-14
2.48104e-11
3.94402e-08
1.94442e-05
0.000496265
0.000331549
2.28168e-05
4.73898e-07
7.31724e-09
1.57238e-11
1.63743e-13
3.33591e-11
5.0392e-08
1.85052e-05
0.00033562
0.00023513
2.09336e-05
3.12866e-07
7.12978e-09
7.32529e-11
1.92637e-13
4.75409e-11
6.60651e-08
1.52097e-05
0.000239869
0.000175565
1.26619e-05
2.60551e-07
4.61524e-09
2.80221e-11
6.94552e-14
5.91651e-11
7.57682e-08
1.317e-05
0.000179265
0.00013545
1.77246e-05
1.8486e-07
2.71452e-09
3.24034e-11
1.62432e-13
6.69726e-11
6.47009e-08
8.00362e-06
0.00013933
0.000107681
1.24759e-05
1.05389e-07
1.24125e-09
1.58306e-11
6.60383e-13
5.34095e-11
5.79991e-08
9.77337e-06
0.000111167
8.75033e-05
9.48204e-06
1.50785e-07
9.41187e-10
4.73439e-12
5.63175e-13
6.31814e-11
4.78754e-08
7.47155e-06
9.10846e-05
7.25542e-05
8.20212e-06
1.35903e-07
9.35137e-10
1.15954e-11
9.03032e-13
7.55268e-11
4.56051e-08
6.0678e-06
7.60908e-05
6.11048e-05
7.74797e-06
2.67668e-07
4.06704e-09
1.99374e-11
1.18114e-12
8.20361e-11
4.95469e-08
5.40066e-06
6.48993e-05
5.21482e-05
7.47398e-06
2.4453e-07
5.36792e-09
8.62003e-11
1.42205e-12
8.23282e-11
4.19914e-08
5.07732e-06
5.60266e-05
4.49635e-05
7.36399e-06
3.05928e-07
6.57055e-09
1.41589e-10
4.21038e-12
8.8312e-11
4.43285e-08
4.57199e-06
4.92093e-05
3.90602e-05
7.07884e-06
3.63365e-07
1.08879e-08
2.67444e-10
7.69645e-12
8.74464e-11
4.00056e-08
4.0939e-06
4.34271e-05
3.41196e-05
7.18125e-06
4.60475e-07
1.74098e-08
6.37094e-10
1.99091e-11
9.2437e-11
3.84203e-08
3.66989e-06
3.90209e-05
2.98463e-05
7.37599e-06
5.78485e-07
2.92372e-08
8.03333e-10
4.53988e-11
9.43656e-11
3.6608e-08
3.22643e-06
3.49055e-05
2.61152e-05
7.71286e-06
7.0091e-07
4.41918e-08
2.80447e-09
8.99462e-11
1.09084e-10
3.26883e-08
2.83986e-06
3.19539e-05
2.27443e-05
8.22044e-06
8.75618e-07
7.23314e-08
4.02254e-09
3.95187e-10
1.12875e-10
2.78333e-08
2.42608e-06
2.87374e-05
1.96308e-05
8.7662e-06
1.14206e-06
1.04285e-07
1.10556e-08
3.96772e-10
1.53418e-10
2.32778e-08
2.08908e-06
2.66811e-05
1.67164e-05
9.59779e-06
1.48996e-06
1.79431e-07
1.65181e-08
2.10268e-09
2.36367e-10
1.86484e-08
1.71238e-06
2.38618e-05
1.38703e-05
1.05935e-05
1.9356e-06
2.56327e-07
4.10287e-08
3.21098e-09
3.30955e-10
1.47102e-08
1.43059e-06
2.22498e-05
1.11651e-05
1.10039e-05
3.04109e-06
4.57163e-07
6.32926e-08
1.1576e-08
1.44089e-09
1.07012e-08
1.08824e-06
1.93948e-05
8.55374e-06
1.14376e-05
4.35996e-06
7.44666e-07
1.51089e-07
1.95575e-08
2.14646e-09
7.96209e-09
8.83691e-07
1.76946e-05
6.16036e-06
1.22117e-05
6.01568e-06
1.3195e-06
2.55123e-07
5.89375e-08
1.10765e-08
9.78034e-09
5.85218e-07
1.38348e-05
3.99554e-06
1.30327e-05
7.96839e-06
2.10811e-06
5.28964e-07
1.19131e-07
3.09908e-08
1.3423e-08
5.85753e-07
1.15935e-05
0.310609
0.7011
0.68192
0.681606
0.681547
0.681548
0.681603
0.68192
0.701184
0.311072
0.0624012
0.034324
0.0191176
0.0189811
0.0191063
0.0191092
0.0188445
0.0191302
0.034254
0.0629011
0.0171368
0.00278865
0.000499217
0.000558696
0.000655186
0.000655992
0.000475702
0.000503518
0.00277986
0.0172967
0.0061088
0.000441464
4.51022e-05
8.2695e-05
1.04551e-06
9.35956e-07
2.15814e-06
0.000137688
0.000436483
0.00618078
0.00267258
0.000125599
1.15541e-05
1.02878e-05
3.28059e-09
1.17371e-10
6.91025e-08
7.04462e-05
0.000125253
0.00270422
0.00136839
5.63702e-05
2.76413e-06
1.57093e-07
5.78215e-12
8.04364e-13
1.6812e-08
1.89372e-05
5.3445e-05
0.00138395
0.000789333
2.75282e-05
1.10944e-06
4.12933e-09
1.66758e-12
2.93569e-12
7.60344e-10
6.84085e-06
2.64806e-05
0.000797766
0.000496525
2.61971e-05
2.92482e-07
6.9848e-10
4.79411e-12
7.53418e-11
1.20167e-10
2.80605e-06
2.22983e-05
0.000502813
0.000335366
2.37377e-05
2.24503e-07
2.14415e-10
5.97911e-12
6.0305e-11
4.77641e-11
1.20266e-06
2.05705e-05
0.000339887
0.000238872
2.06273e-05
1.43228e-07
3.63916e-10
6.23773e-12
6.01288e-11
3.12749e-10
6.82444e-07
1.76714e-05
0.000243727
0.000178171
1.25757e-05
1.93509e-07
4.49132e-10
1.81666e-11
1.89014e-10
3.80159e-11
4.18294e-07
1.36726e-05
0.000181421
0.000137489
1.62695e-05
1.44492e-07
6.64176e-11
5.23006e-12
2.2559e-10
1.18364e-10
2.40959e-07
1.11028e-05
0.000140792
0.000109123
1.15918e-05
3.19601e-07
3.04571e-09
5.94968e-11
2.01803e-10
1.26666e-10
1.07544e-07
5.63856e-06
0.000112705
8.86253e-05
9.0327e-06
2.82012e-07
1.90477e-09
8.00373e-12
2.64258e-10
1.27414e-10
6.70032e-08
7.949e-06
9.24112e-05
7.34344e-05
8.42231e-06
2.33859e-07
5.01777e-09
1.44337e-10
2.75893e-10
2.41848e-10
5.20813e-08
6.02897e-06
7.72368e-05
6.17858e-05
7.52321e-06
2.55762e-07
4.9105e-09
1.22189e-10
3.32246e-10
2.49965e-10
3.69133e-08
5.00514e-06
6.5867e-05
5.26765e-05
7.65013e-06
2.66971e-07
5.45043e-09
2.51315e-10
4.007e-10
3.34953e-10
2.63902e-08
4.60199e-06
5.68581e-05
4.53726e-05
7.6218e-06
3.15066e-07
8.4077e-09
3.64467e-10
4.25276e-10
3.33481e-10
3.50364e-08
4.27166e-06
4.99212e-05
3.93735e-05
7.58557e-06
3.95461e-07
1.22077e-08
5.79497e-10
5.3029e-10
4.2426e-10
5.00919e-08
3.91319e-06
4.40926e-05
3.4362e-05
7.69957e-06
4.88191e-07
2.02173e-08
8.41922e-10
5.95131e-10
4.56239e-10
5.05109e-08
3.57905e-06
3.96113e-05
3.00506e-05
7.95632e-06
6.30896e-07
3.08083e-08
1.86531e-09
6.65669e-10
4.89154e-10
4.76705e-08
3.20466e-06
3.54603e-05
2.62774e-05
8.25335e-06
7.9365e-07
5.18078e-08
2.4396e-09
9.78298e-10
7.07719e-10
4.1378e-08
2.85165e-06
3.2439e-05
2.28775e-05
8.77171e-06
1.03042e-06
8.17554e-08
6.81922e-09
9.64341e-10
9.81547e-10
3.893e-08
2.46742e-06
2.9192e-05
1.97358e-05
9.30383e-06
1.3606e-06
1.36543e-07
1.06159e-08
2.33207e-09
1.31384e-09
3.0315e-08
2.12258e-06
2.70513e-05
1.68132e-05
1.01155e-05
1.70237e-06
2.27199e-07
2.64154e-08
3.05852e-09
1.7533e-09
2.66591e-08
1.74936e-06
2.41876e-05
1.39998e-05
1.10955e-05
2.26047e-06
3.49014e-07
4.47306e-08
8.46141e-09
2.29215e-09
2.06363e-08
1.4403e-06
2.2462e-05
1.13128e-05
1.13862e-05
3.37461e-06
6.08455e-07
9.78201e-08
1.45478e-08
6.16041e-09
1.56834e-08
1.09807e-06
1.96129e-05
8.7567e-06
1.17493e-05
4.63748e-06
9.28601e-07
1.80323e-07
4.16004e-08
9.38367e-09
1.56076e-08
8.67212e-07
1.77063e-05
6.44606e-06
1.24369e-05
6.22858e-06
1.50611e-06
3.37273e-07
7.0119e-08
2.46236e-08
1.69218e-08
5.798e-07
1.40204e-05
4.42483e-06
1.31139e-05
8.12143e-06
2.23694e-06
5.99327e-07
1.72807e-07
4.73349e-08
3.4414e-08
5.55858e-07
1.15746e-05
0.310906
0.70148
0.682197
0.681911
0.681854
0.681854
0.681931
0.682199
0.701561
0.311361
0.0628506
0.0348092
0.0192647
0.0188046
0.0188763
0.0188731
0.0194161
0.0197424
0.0347439
0.0633519
0.0173712
0.00285821
0.000421479
0.000334149
0.000391661
0.000390753
0.000666968
0.00070653
0.00284683
0.0175355
0.0062168
0.000458032
2.00401e-06
8.45456e-07
9.38828e-07
7.99504e-07
1.3604e-06
4.60889e-06
0.000455072
0.00629049
0.00272345
0.000133521
8.05288e-08
2.48247e-08
1.7512e-08
1.94559e-08
2.35115e-08
6.72558e-08
0.000130509
0.00275555
0.00139476
5.41594e-05
2.55079e-08
1.71639e-08
1.03341e-08
1.25567e-08
8.84144e-09
2.68521e-08
5.51471e-05
0.00140987
0.000802888
2.99377e-05
1.68783e-08
2.29098e-08
1.04451e-08
1.44955e-08
1.59339e-08
3.19701e-08
2.61727e-05
0.000812976
0.00050632
2.29739e-05
2.2867e-08
4.09519e-08
1.72028e-08
2.03224e-08
2.28766e-08
2.90185e-08
2.03506e-05
0.000511648
0.000340755
2.21763e-05
3.64637e-08
8.1691e-08
2.10978e-08
5.12325e-08
2.28996e-08
4.52079e-08
2.04059e-05
0.000345162
0.000242624
1.84448e-05
5.80168e-08
9.41452e-08
1.94415e-08
9.1749e-08
3.62227e-08
4.57114e-08
1.66849e-05
0.000246089
0.000180729
1.49095e-05
1.14415e-07
1.04679e-07
3.46744e-08
1.24084e-07
3.25656e-08
4.99308e-08
1.43491e-05
0.000183715
0.000139465
9.08574e-06
7.98092e-08
1.17282e-07
1.66965e-08
9.59808e-08
4.52332e-08
4.91197e-08
8.87159e-06
0.000141996
0.000110619
1.07563e-05
1.92348e-07
1.28506e-07
4.40871e-08
1.14211e-07
5.83142e-08
6.797e-08
9.8432e-06
0.00011313
8.98842e-05
8.57393e-06
1.29144e-07
9.73904e-08
2.19934e-08
7.99045e-08
4.56248e-08
5.88327e-08
8.00132e-06
9.23155e-05
7.44244e-05
7.4666e-06
1.49556e-07
7.89064e-08
2.94521e-08
6.06373e-08
4.32475e-08
6.34319e-08
6.45893e-06
7.6949e-05
6.26415e-05
6.74184e-06
1.53497e-07
7.47241e-08
3.22164e-08
6.99752e-08
4.38867e-08
8.04679e-08
6.08672e-06
6.53707e-05
5.34052e-05
6.4516e-06
1.93484e-07
7.7738e-08
3.90691e-08
6.56357e-08
4.97411e-08
7.99629e-08
5.49908e-06
5.63067e-05
4.59975e-05
6.48907e-06
2.48915e-07
8.35817e-08
4.52068e-08
7.4623e-08
5.45734e-08
8.87859e-08
4.98385e-06
4.93407e-05
3.99243e-05
6.63574e-06
3.02059e-07
9.31656e-08
4.99184e-08
7.76589e-08
5.90249e-08
9.66442e-08
4.48691e-06
4.34955e-05
3.48435e-05
7.05426e-06
4.15514e-07
1.02067e-07
5.66586e-08
8.06717e-08
6.23897e-08
9.78012e-08
4.04944e-06
3.90302e-05
3.04875e-05
7.41057e-06
5.11477e-07
1.23348e-07
6.17941e-08
8.41062e-08
6.85275e-08
9.8588e-08
3.60273e-06
3.49313e-05
2.66525e-05
7.85347e-06
6.83484e-07
1.37696e-07
7.4852e-08
8.62709e-08
7.44479e-08
1.00607e-07
3.20489e-06
3.19523e-05
2.31835e-05
8.48934e-06
8.51359e-07
1.91786e-07
8.1078e-08
9.50081e-08
8.53671e-08
1.03079e-07
2.79609e-06
2.88057e-05
1.99957e-05
9.27866e-06
1.20723e-06
2.27419e-07
1.16045e-07
1.05797e-07
9.60875e-08
1.08367e-07
2.43448e-06
2.67345e-05
1.6986e-05
1.04545e-05
1.55094e-06
3.57867e-07
1.33391e-07
1.19884e-07
1.11849e-07
1.24139e-07
2.06926e-06
2.40581e-05
1.4043e-05
1.14808e-05
2.32547e-06
4.55991e-07
2.07682e-07
1.4893e-07
1.33988e-07
1.41014e-07
1.75244e-06
2.24538e-05
1.12434e-05
1.19954e-05
3.56607e-06
8.24966e-07
2.66677e-07
1.91132e-07
1.7368e-07
1.84721e-07
1.46045e-06
1.98826e-05
8.53719e-06
1.27859e-05
5.52429e-06
1.20921e-06
5.00592e-07
2.70514e-07
2.29604e-07
2.22942e-07
1.20147e-06
1.8053e-05
6.15469e-06
1.42688e-05
7.77972e-06
2.37194e-06
7.39708e-07
4.16165e-07
3.18482e-07
3.18435e-07
1.12856e-06
1.50008e-05
4.59772e-06
1.61317e-05
1.17947e-05
4.11479e-06
1.66459e-06
7.0846e-07
4.913e-07
4.41413e-07
1.33663e-06
1.18894e-05
0.312041
0.7151
0.701568
0.701187
0.701144
0.701145
0.701186
0.701564
0.715152
0.312469
0.0637859
0.0522279
0.0347585
0.0342641
0.0342409
0.0342432
0.0342685
0.0347538
0.0523139
0.0642782
0.0177563
0.00735577
0.00284682
0.00278259
0.00278345
0.00278463
0.00278487
0.00285241
0.00740615
0.0179405
0.00632882
0.0017653
0.000450758
0.000436002
0.000437248
0.000437483
0.000438408
0.000456105
0.00176957
0.00642246
0.00273854
0.000686195
0.000132211
0.000125895
0.000126134
0.00012791
0.000127563
0.000131414
0.000659828
0.00279005
0.00138771
0.000289499
5.46277e-05
5.34862e-05
5.35366e-05
5.06303e-05
5.09636e-05
5.55321e-05
0.000306519
0.00140918
0.000784566
0.000190696
2.72317e-05
2.71459e-05
2.70361e-05
2.73963e-05
2.78749e-05
2.64437e-05
0.00017922
0.000809485
0.000489642
0.000136841
1.68517e-05
1.77872e-05
1.89418e-05
2.19684e-05
2.48628e-05
2.11311e-05
0.000122138
0.000498942
0.000330213
9.25344e-05
1.51149e-05
1.8632e-05
1.95417e-05
1.95831e-05
2.13782e-05
2.01255e-05
9.04665e-05
0.000336367
0.000234367
5.58051e-05
1.48009e-05
1.66594e-05
1.58886e-05
1.67337e-05
1.77524e-05
1.6068e-05
5.09929e-05
0.000238625