/*--------------------------------*- C++ -*----------------------------------*\
| =========                 |                                                 |
| \\      /  F ield         | OpenFOAM: The Open Source CFD Toolbox           |
|  \\    /   O peration     | Version:  4.1                                   |
|   \\  /    A nd           | Web:      www.OpenFOAM.org                      |
|    \\/     M anipulation  |                                                 |
\*---------------------------------------------------------------------------*/
FoamFile
{
    version     2.0;
    format      ascii;
    class       volScalarField;
    location    "1900";
    object      k;
}
// * * * * * * * * * * * * * * * * * * * * * * * * * * * * * * * * * * * * * //

dimensions      [0 2 -2 0 0 0 0];

internalField   nonuniform List<scalar> 
12000
(
0.116566
0.113983
0.113685
0.113611
0.113592
0.113592
0.11361
0.113685
0.114012
0.116605
0.0404801
0.0398075
0.0395029
0.039322
0.039266
0.0392662
0.0393221
0.0394999
0.0398007
0.0404672
0.0169438
0.0169738
0.0168046
0.016657
0.016602
0.0166023
0.0166576
0.0168038
0.016971
0.0169471
0.00840023
0.00858408
0.00849872
0.0084007
0.00835929
0.00835964
0.00840203
0.00849899
0.00858197
0.00840687
0.00477518
0.00495864
0.00491365
0.00485035
0.00481938
0.00481974
0.00485104
0.00491349
0.00495983
0.00478658
0.00301437
0.00316118
0.00314296
0.0031027
0.00308002
0.00308012
0.00310313
0.00314326
0.00316687
0.00302731
0.0020617
0.00217442
0.00217322
0.00214628
0.00212898
0.00212951
0.00214807
0.00217407
0.00217407
0.00207406
0.00149932
0.00158007
0.00159429
0.00157578
0.00156339
0.00156365
0.00157701
0.00159508
0.00158084
0.00150968
0.00114263
0.00120538
0.0012259
0.00121349
0.001202
0.0012024
0.00121458
0.00122794
0.00120646
0.0011524
0.000904223
0.000956032
0.000977446
0.000967568
0.000960222
0.000960462
0.000968303
0.000978988
0.000954902
0.00091336
0.000736961
0.00078096
0.00080176
0.000795281
0.00078837
0.000789269
0.000796424
0.000805105
0.000782146
0.000746562
0.000614996
0.000654564
0.000675373
0.000669334
0.000664175
0.000664241
0.000669874
0.000678048
0.000657681
0.000625794
0.000523201
0.000559864
0.000578238
0.00057507
0.000569409
0.000570385
0.000576262
0.000582936
0.000564471
0.000535528
0.000452276
0.000487271
0.000505101
0.000502549
0.000498389
0.000499259
0.000504321
0.000509966
0.000492605
0.000466308
0.000396105
0.000430097
0.000447292
0.000445224
0.000442308
0.000443212
0.000447334
0.000452503
0.000436487
0.000412183
0.000350571
0.000383842
0.000400771
0.000399075
0.000396907
0.000398068
0.00040175
0.000406452
0.000391524
0.000369093
0.000312828
0.000345614
0.000362438
0.000361344
0.000359734
0.00036108
0.000364494
0.000369064
0.000355185
0.000334387
0.000280846
0.000313532
0.000330332
0.000330014
0.000329111
0.000330736
0.000334
0.00033825
0.000325301
0.000306009
0.000253109
0.000286149
0.000303113
0.000303569
0.000303225
0.00030495
0.000308341
0.000312837
0.000300899
0.000282867
0.0002284
0.000262265
0.000279653
0.000281061
0.000281511
0.000283651
0.000287025
0.000291458
0.000280502
0.00026362
0.000205706
0.000240851
0.000259101
0.000261494
0.000262435
0.000264816
0.000268587
0.000273654
0.000264089
0.000248149
0.000184045
0.000220973
0.00024078
0.000244475
0.00024633
0.000249443
0.000253212
0.000258389
0.000250153
0.000235127
0.000162451
0.000201506
0.000223843
0.000229082
0.000231433
0.000234978
0.000239593
0.000245872
0.000239552
0.00022535
0.000139676
0.000181807
0.000207709
0.00021534
0.000219009
0.000223543
0.000228175
0.000234861
0.00023027
0.000217123
0.000114313
0.000159706
0.000191263
0.000201776
0.00020623
0.000211514
0.000217787
0.000226286
0.00022406
0.000212318
8.29002e-05
0.000134332
0.000173152
0.000188947
0.000195995
0.000202344
0.000208416
0.000218175
0.000218123
0.000208477
4.58189e-05
0.000101988
0.000151023
0.000172759
0.000182407
0.000190973
0.000199797
0.000212517
0.000215069
0.00020904
3.0382e-05
6.7312e-05
0.000121693
0.000154255
0.000170993
0.000180934
0.000189568
0.000204863
0.000212979
0.000210128
4.0447e-05
5.77285e-05
8.03148e-05
0.000112765
0.00014607
0.000167445
0.000179273
0.000198777
0.000211389
0.000216562
6.59996e-05
8.43856e-05
8.81976e-05
8.95576e-05
0.000103923
0.000126086
0.000156713
0.000182749
0.000208134
0.000225496
0.113983
0.0221518
0.0198832
0.0198708
0.0198719
0.0198719
0.0198708
0.0198831
0.0221462
0.113968
0.0398059
0.00246521
0.00173195
0.00171693
0.00171498
0.00171469
0.00171608
0.00173023
0.00240555
0.0396735
0.0169715
0.00157641
0.000920452
0.000903995
0.000901531
0.000902448
0.000901947
0.000916144
0.00153747
0.0168892
0.00858148
0.00139276
0.000781534
0.000764832
0.000768802
0.000766747
0.00076814
0.000777431
0.00131856
0.00852055
0.00495597
0.00126331
0.000596
0.000590661
0.000576982
0.000574075
0.000569587
0.000589149
0.00127121
0.00492908
0.00315848
0.00100847
0.000403055
0.000388261
0.000403939
0.00039863
0.000398549
0.00040529
0.000915843
0.00315739
0.00217161
0.000716515
0.000285123
0.000272186
0.000266163
0.000268053
0.000272457
0.000271781
0.000712229
0.00217778
0.00157709
0.000539176
0.00017541
0.000193171
0.000208603
0.000196144
0.000182282
0.000195123
0.000579718
0.00158829
0.00120216
0.000403758
0.000184606
0.000142419
0.00015338
0.000142206
0.000170264
0.00014596
0.00043868
0.00121462
0.000952521
0.000324824
0.000165627
0.000109688
0.000118152
0.000112543
0.000136098
0.000118759
0.000365961
0.000962364
0.000777194
0.000218572
0.000127121
9.34421e-05
9.45934e-05
9.11383e-05
0.000111933
9.20682e-05
0.00028128
0.00078857
0.000650353
0.000193245
8.74285e-05
7.018e-05
8.38074e-05
8.15314e-05
8.65589e-05
7.46011e-05
0.000213621
0.000663298
0.000555233
0.000183303
6.57179e-05
5.33954e-05
6.41239e-05
6.73798e-05
7.4723e-05
6.1207e-05
0.000181955
0.000569192
0.000482056
0.000176614
5.49165e-05
5.46996e-05
4.68342e-05
4.93573e-05
6.68618e-05
5.13724e-05
0.000169799
0.000496934
0.000424204
0.000170996
4.37926e-05
5.04399e-05
4.77404e-05
4.99655e-05
6.31663e-05
4.49995e-05
0.000159482
0.000440564
0.000377161
0.00015969
4.66897e-05
5.04021e-05
4.21592e-05
4.41392e-05
6.07868e-05
4.57866e-05
0.000146402
0.000395754
0.000338039
0.000152393
4.45974e-05
4.9206e-05
4.00242e-05
4.39566e-05
5.90885e-05
4.47145e-05
0.000135532
0.000358872
0.000304929
0.000147414
4.15208e-05
4.61401e-05
3.95138e-05
4.27193e-05
5.63304e-05
4.36536e-05
0.000126874
0.000328982
0.000276453
0.000147249
4.14513e-05
4.54966e-05
3.88804e-05
4.02989e-05
5.22451e-05
4.41368e-05
0.000118583
0.00030327
0.000251378
0.000148264
4.35568e-05
4.50672e-05
3.92794e-05
4.06396e-05
5.08259e-05
4.44294e-05
0.000112134
0.000282673
0.000228874
0.000149949
4.75323e-05
4.45497e-05
3.92567e-05
4.02448e-05
4.96243e-05
4.4603e-05
0.000105081
0.000263939
0.000207959
0.000151147
5.20141e-05
4.51538e-05
4.10743e-05
3.95555e-05
4.81521e-05
4.52606e-05
9.99318e-05
0.000249585
0.000187993
0.000154712
5.68369e-05
4.59798e-05
4.19572e-05
4.04234e-05
4.80047e-05
4.5794e-05
9.40069e-05
0.000235426
0.000168331
0.000159914
6.95128e-05
4.99062e-05
4.34529e-05
3.94957e-05
4.7931e-05
4.71785e-05
8.99017e-05
0.000225408
0.000147944
0.000163975
8.21096e-05
5.38243e-05
4.55731e-05
4.38787e-05
4.82505e-05
4.75684e-05
8.52229e-05
0.000214289
0.000125747
0.00017192
0.000101465
6.36716e-05
4.97395e-05
4.57505e-05
4.93226e-05
5.18993e-05
8.20366e-05
0.000207168
0.000101049
0.000182747
0.000120525
6.85297e-05
5.35627e-05
4.77873e-05
4.99531e-05
5.30533e-05
8.06343e-05
0.000197346
7.42763e-05
0.000199836
0.000157749
8.50492e-05
6.23658e-05
5.56427e-05
5.82051e-05
6.16595e-05
8.03446e-05
0.000192975
5.83944e-05
0.000224013
0.000200182
0.000117507
7.88861e-05
6.08512e-05
6.01571e-05
6.32798e-05
9.57305e-05
0.00018084
6.02258e-05
0.000250227
0.000255219
0.000188966
0.00011398
8.07053e-05
7.19234e-05
7.59509e-05
0.00011216
0.000185941
0.113684
0.0198837
0.0176823
0.0176747
0.0176743
0.0176743
0.0176746
0.0176822
0.0198782
0.113633
0.0395014
0.00173253
0.000823736
0.00081166
0.000821782
0.000813054
0.000823624
0.000841839
0.00172998
0.0393436
0.0168022
0.000921226
6.31289e-05
4.16057e-05
3.8252e-05
4.05433e-05
3.84672e-05
4.1421e-05
0.000915314
0.0167151
0.00849609
0.000786128
1.51693e-06
2.80834e-07
4.43511e-07
2.34475e-07
4.71245e-07
5.36998e-07
0.000778945
0.0084455
0.00491052
0.000591911
8.97869e-07
1.15765e-07
3.69912e-07
1.19842e-07
4.14091e-07
7.1336e-07
0.000592006
0.00489589
0.00314002
0.000414601
1.98241e-06
1.28813e-07
6.74008e-07
1.25002e-07
9.03303e-07
8.26808e-07
0.000420063
0.00314566
0.00217035
0.000274951
4.48568e-06
3.01427e-07
1.11601e-06
1.39067e-07
1.75844e-06
6.20447e-07
0.000242909
0.00218224
0.00159083
0.000194492
5.26228e-06
7.74313e-07
1.44418e-06
2.51214e-07
1.96938e-06
4.75772e-07
0.000279588
0.00160627
0.00122206
0.000148644
3.81722e-06
1.26952e-06
1.59485e-06
3.48252e-07
2.44806e-06
4.58909e-07
0.000245253
0.00123693
0.000973267
0.000110547
2.92143e-06
1.36227e-06
1.18988e-06
5.1442e-07
2.04907e-06
5.68138e-07
0.000173992
0.000986136
0.000798947
8.36662e-05
2.13238e-06
1.02868e-06
1.88658e-06
7.96964e-07
1.14461e-06
4.49996e-07
0.000111651
0.000809694
0.000670753
6.03616e-05
2.1523e-06
1.37366e-06
1.43676e-06
1.12709e-06
1.99733e-06
4.17159e-07
7.65496e-05
0.000681471
0.000574982
6.14872e-05
1.64479e-06
9.7295e-07
1.29734e-06
9.67347e-07
1.56982e-06
5.37591e-07
6.38562e-05
0.000584279
0.000500589
5.49921e-05
1.35497e-06
7.35212e-07
7.86424e-07
1.17761e-06
1.25819e-06
4.92449e-07
5.65161e-05
0.000510302
0.000441586
5.51086e-05
1.37629e-06
7.48494e-07
6.89405e-07
9.02207e-07
1.20915e-06
4.71341e-07
5.07019e-05
0.000451951
0.000393795
5.88111e-05
1.68489e-06
8.1117e-07
6.87703e-07
8.11762e-07
1.24126e-06
4.96733e-07
4.58407e-05
0.000405462
0.000354177
6.17074e-05
2.15472e-06
9.6778e-07
7.07746e-07
7.21063e-07
1.29389e-06
5.75156e-07
4.10671e-05
0.000366906
0.000320734
6.67492e-05
2.87145e-06
1.08486e-06
6.76726e-07
7.09679e-07
1.57286e-06
6.72688e-07
4.02287e-05
0.000335915
0.000291942
7.13185e-05
3.8996e-06
1.24583e-06
8.8076e-07
7.61496e-07
1.65183e-06
7.92092e-07
3.87462e-05
0.000308799
0.000266692
7.67949e-05
5.15218e-06
1.43506e-06
9.49681e-07
8.97668e-07
1.72422e-06
9.12898e-07
3.72322e-05
0.000287293
0.000243985
8.11939e-05
6.65045e-06
1.65483e-06
1.03403e-06
9.45473e-07
1.78091e-06
1.06983e-06
3.49065e-05
0.000266801
0.000223045
8.67631e-05
9.14776e-06
1.85283e-06
1.23333e-06
9.99816e-07
1.8281e-06
1.21134e-06
3.27074e-05
0.000251381
0.000203275
9.55999e-05
1.17409e-05
2.25889e-06
1.26859e-06
9.48154e-07
1.77094e-06
1.42385e-06
2.96513e-05
0.000234562
0.000183993
0.00010316
1.53513e-05
3.00929e-06
1.95836e-06
1.46684e-06
2.16309e-06
1.59808e-06
2.68511e-05
0.000223043
0.000165105
0.000119789
2.02931e-05
3.90235e-06
2.34288e-06
1.6732e-06
2.28112e-06
1.81791e-06
2.34548e-05
0.000207733
0.000145476
0.000124002
2.68218e-05
6.26019e-06
2.45808e-06
1.55429e-06
2.22382e-06
2.09914e-06
2.06433e-05
0.000198215
0.00012529
0.000129447
3.95148e-05
8.39868e-06
3.54191e-06
2.39587e-06
2.35783e-06
2.42414e-06
1.737e-05
0.000182436
0.000104325
0.000142167
6.45925e-05
1.52939e-05
4.88281e-06
2.7157e-06
2.91177e-06
3.00791e-06
1.51972e-05
0.000170771
8.40375e-05
0.000159294
9.44331e-05
2.65908e-05
9.02779e-06
4.49055e-06
3.49807e-06
3.8742e-06
1.30771e-05
0.000151499
6.90055e-05
0.000182649
0.000141315
5.27488e-05
1.84008e-05
7.1019e-06
4.84629e-06
4.55151e-06
1.42067e-05
0.000129138
0.11361
0.0198714
0.0176747
0.0176669
0.0176666
0.0176666
0.017667
0.0176746
0.0198659
0.113557
0.0393205
0.00171677
0.000810001
0.000797601
0.000794216
0.000810702
0.000793689
0.00082354
0.0017161
0.0391636
0.0166544
0.000905799
3.60492e-05
3.36262e-05
3.38794e-05
3.41382e-05
3.40048e-05
3.86535e-05
0.000900101
0.0165712
0.00839809
0.000769808
2.32683e-07
2.57646e-07
1.66987e-07
2.22184e-07
2.18613e-07
5.36643e-07
0.000768376
0.0083531
0.00484708
0.000579036
2.74988e-07
3.90231e-10
4.10953e-11
1.03801e-10
9.1965e-10
2.18741e-07
0.000579798
0.00483658
0.00309917
0.000398215
3.06081e-07
1.21963e-11
3.57183e-11
4.23564e-13
1.48438e-10
1.6602e-07
0.00040782
0.00310681
0.0021435
0.000279719
3.01256e-07
2.98404e-10
1.56167e-09
1.64419e-11
5.68172e-10
1.50771e-07
0.00027065
0.00215629
0.00157217
0.00018713
3.95539e-07
1.40526e-09
5.92433e-09
1.9046e-10
2.44017e-09
1.98203e-07
0.000203809
0.00158717
0.00120957
0.000181276
6.69058e-07
2.99524e-09
6.62293e-09
4.98584e-10
4.14767e-09
1.16645e-07
0.000137827
0.00122238
0.000964201
0.000164284
9.97567e-07
7.30172e-09
5.07861e-09
8.12791e-10
6.541e-09
8.56888e-08
0.000135042
0.000977324
0.000789702
0.000123415
1.1983e-06
7.5396e-09
4.2526e-09
7.24459e-10
5.03797e-09
7.094e-08
0.000120489
0.000803396
0.000663547
0.000115994
1.93398e-06
1.16862e-08
4.85596e-09
4.40571e-09
2.46812e-09
7.8187e-08
9.54208e-05
0.000677404
0.000567733
0.000105664
1.87093e-06
1.21384e-08
3.05591e-09
3.20137e-09
1.97521e-09
3.49671e-08
6.32106e-05
0.000582461
0.000494603
9.94907e-05
3.22612e-06
3.70016e-08
2.93567e-09
4.81696e-09
2.31775e-09
6.89964e-08
5.2385e-05
0.000510097
0.000436894
8.66945e-05
3.39292e-06
3.99931e-08
1.77385e-09
5.15305e-09
3.05613e-09
6.87949e-08
4.45288e-05
0.000452828
0.000389582
7.17404e-05
2.8062e-06
5.79737e-08
2.0196e-09
3.23757e-09
4.04645e-09
9.63692e-08
4.00171e-05
0.000407224
0.000350686
7.50032e-05
2.98353e-06
5.64167e-08
3.07369e-09
3.633e-09
5.38968e-09
7.99785e-08
3.72374e-05
0.000369181
0.000317656
7.10275e-05
3.19217e-06
1.06373e-07
3.34195e-09
3.63947e-09
7.25777e-09
1.78441e-07
3.55221e-05
0.000338472
0.000289103
7.05543e-05
3.69928e-06
1.11616e-07
8.14233e-09
3.608e-09
8.93043e-09
1.82966e-07
3.38373e-05
0.000311561
0.000264083
7.27642e-05
4.8178e-06
2.88795e-07
7.45441e-09
2.16472e-09
9.92158e-09
2.0748e-07
3.17969e-05
0.000289997
0.000241553
7.55594e-05
5.75035e-06
4.16754e-07
2.87896e-08
7.1305e-09
1.24738e-08
2.12723e-07
2.92544e-05
0.000269536
0.000220816
8.0612e-05
7.58744e-06
5.07749e-07
5.38033e-08
8.73713e-09
1.17618e-08
2.18325e-07
2.67441e-05
0.000253736
0.000201193
8.7465e-05
9.60036e-06
1.06444e-06
5.78597e-08
1.52937e-08
2.12036e-08
2.06135e-07
2.36954e-05
0.000236768
0.000182431
9.85173e-05
1.3279e-05
1.43077e-06
2.07478e-07
9.72013e-09
2.38784e-08
1.92835e-07
2.08914e-05
0.000224676
0.000163843
0.000107963
1.69626e-05
2.95122e-06
2.88635e-07
6.50915e-08
2.71667e-08
1.74017e-07
1.76262e-05
0.000208759
0.00014507
0.000117132
2.33712e-05
3.56614e-06
7.65081e-07
7.77014e-08
5.40971e-08
1.59476e-07
1.49052e-05
0.000198586
0.000125885
0.000122998
3.33245e-05
6.37922e-06
9.36848e-07
2.3694e-07
5.93705e-08
1.50121e-07
1.17182e-05
0.000181293
0.000106046
0.000128898
5.12399e-05
9.0014e-06
1.99387e-06
2.97627e-07
1.48227e-07
1.57826e-07
9.26713e-06
0.000169582
8.62908e-05
0.000140213
7.27007e-05
1.64235e-05
3.09014e-06
7.78161e-07
1.59708e-07
1.76712e-07
6.48565e-06
0.000145327
6.67213e-05
0.000151494
0.000101628
2.80626e-05
7.19082e-06
1.56621e-06
4.87997e-07
1.80868e-07
5.08827e-06
0.000127555
0.113592
0.0198725
0.0176744
0.0176666
0.0176662
0.0176662
0.0176666
0.0176743
0.019867
0.113538
0.0392643
0.00171536
0.000816074
0.000794091
0.000809207
0.000810787
0.000805695
0.000803088
0.00171393
0.0391079
0.0165993
0.000903591
3.70444e-05
3.38558e-05
3.40756e-05
3.44766e-05
3.35713e-05
3.94118e-05
0.00090086
0.016517
0.00835603
0.000768667
5.1189e-07
1.60774e-07
1.75998e-07
1.42587e-07
2.71819e-07
5.26904e-07
0.000765958
0.00831251
0.00481602
0.000580266
9.29846e-07
4.49365e-11
2.49358e-10
1.46158e-10
7.69507e-10
2.9024e-07
0.000575386
0.00480649
0.00307616
0.000396574
1.86946e-06
3.60008e-10
5.21894e-13
6.61729e-13
1.02916e-11
3.02638e-07
0.000402097
0.00308396
0.00212499
0.000275955
1.93154e-06
5.85527e-09
2.77916e-12
1.01155e-14
3.08357e-11
2.17517e-07
0.000275688
0.00213888
0.00155941
0.000192026
2.62532e-06
1.2568e-08
1.25094e-11
8.18667e-14
2.96629e-11
1.7524e-07
0.00017791
0.00157303
0.00119765
0.000146191
3.59284e-06
6.95286e-09
3.84498e-11
1.08183e-13
1.68372e-11
1.64751e-07
0.00018454
0.00121168
0.000954938
0.000114426
3.46595e-06
3.36678e-08
7.22859e-11
3.91451e-13
1.41875e-11
1.42037e-07
0.000134655
0.000967032
0.000783207
0.000103099
3.58525e-06
4.10831e-08
1.1789e-10
7.62504e-13
2.87579e-12
1.09344e-07
0.000117755
0.000796556
0.000656899
8.31568e-05
2.87167e-06
4.09964e-08
2.03449e-10
4.29171e-12
4.27667e-12
6.64921e-08
9.82864e-05
0.000670791
0.000563448
7.26108e-05
1.67694e-06
2.75556e-08
1.20382e-10
4.49638e-12
6.09337e-12
5.04004e-08
7.75585e-05
0.000576881
0.000491071
6.01736e-05
2.59982e-06
2.81858e-08
1.51765e-10
6.1256e-12
2.66238e-13
2.06308e-08
6.16307e-05
0.000503861
0.00043371
6.41058e-05
2.17253e-06
2.01662e-08
1.49266e-10
8.27132e-13
9.95499e-12
6.2533e-08
4.97184e-05
0.000447295
0.000386998
6.32468e-05
2.03209e-06
3.74323e-08
3.38579e-10
1.09514e-12
6.65523e-12
6.53754e-08
4.23685e-05
0.000402347
0.000348192
5.96723e-05
2.12077e-06
3.76266e-08
3.95183e-10
1.51586e-11
3.57117e-11
8.25892e-08
3.87392e-05
0.000364902
0.000315478
5.88871e-05
2.41942e-06
7.86708e-08
1.48602e-09
3.95813e-12
4.91955e-11
7.84201e-08
3.52464e-05
0.000334689
0.000287168
6.18271e-05
3.26589e-06
9.166e-08
1.40324e-09
7.17725e-11
3.00623e-11
9.01986e-08
3.32386e-05
0.000307939
0.000262364
6.59436e-05
4.2021e-06
2.04153e-07
7.66696e-09
2.44357e-10
2.04267e-10
1.1473e-07
3.20023e-05
0.000286936
0.0002401
7.16992e-05
5.9227e-06
2.9255e-07
1.4765e-08
2.05448e-09
2.04161e-10
1.02351e-07
2.97956e-05
0.000266493
0.000219628
7.78132e-05
8.19922e-06
6.20049e-07
1.8652e-08
1.60206e-09
3.10311e-10
1.57107e-07
2.75541e-05
0.000251397
0.000200386
8.599e-05
1.21142e-05
9.43933e-07
9.63814e-08
5.99297e-09
6.92743e-10
1.53429e-07
2.45259e-05
0.000234206
0.000181724
9.39357e-05
1.56832e-05
1.97095e-06
1.41144e-07
1.38031e-08
1.89481e-09
1.23876e-07
2.17281e-05
0.000222837
0.000163306
0.000106323
2.1901e-05
3.04353e-06
4.27656e-07
2.64441e-08
2.76248e-09
1.17157e-07
1.82952e-05
0.000206678
0.000144629
0.000116766
2.72608e-05
5.73832e-06
6.82791e-07
1.17187e-07
1.62807e-08
9.79035e-08
1.54254e-05
0.000196895
0.000125331
0.000123551
3.99673e-05
7.1625e-06
1.57654e-06
1.85674e-07
1.87428e-08
8.82299e-08
1.19982e-05
0.000179626
0.000104991
0.000129411
5.2667e-05
1.14997e-05
2.05689e-06
4.81819e-07
9.19176e-08
8.79596e-08
9.40083e-06
0.000167471
8.42505e-05
0.000140358
7.33309e-05
1.6705e-05
4.05579e-06
7.02243e-07
1.32561e-07
1.03172e-07
6.41679e-06
0.000143615
6.27897e-05
0.000151193
0.000101911
2.81456e-05
6.73945e-06
1.71489e-06
4.84354e-07
1.4142e-07
4.97785e-06
0.000121267
0.113592
0.0198725
0.0176742
0.0176666
0.0176662
0.0176662
0.0176666
0.0176743
0.019867
0.113538
0.0392643
0.0017151
0.000829476
0.000808357
0.000796969
0.000810368
0.000791485
0.000824233
0.00171363
0.0391081
0.0165993
0.000903079
4.2781e-05
3.39841e-05
3.3749e-05
3.4316e-05
3.61957e-05
3.9038e-05
0.000899591
0.0165173
0.0083561
0.000770581
5.05166e-07
2.61223e-07
1.47341e-07
1.4693e-07
1.8293e-07
4.65809e-07
0.000765482
0.00831297
0.00481589
0.000572808
4.42733e-07
1.41295e-09
4.39042e-10
5.80357e-11
1.29735e-10
2.52934e-07
0.000572647
0.00480679
0.00307574
0.000403121
6.6723e-07
2.88661e-10
1.0523e-12
1.35515e-13
4.95653e-11
3.8849e-07
0.000403956
0.00308398
0.00212568
0.000271075
7.59123e-07
1.3714e-10
1.16588e-14
1.32523e-13
3.09276e-10
5.12697e-07
0.000270189
0.00213888
0.00155824
0.000193384
9.08799e-07
1.21646e-09
3.03362e-13
7.32527e-14
6.3912e-10
5.64736e-07
0.000193296
0.00157299
0.00119831
0.000149519
1.53372e-06
1.82807e-09
4.81924e-13
5.70209e-13
8.03534e-10
6.09594e-07
0.000147548
0.00121142
0.00095378
0.000119559
1.62898e-06
1.2853e-09
1.07561e-13
1.18621e-13
6.77284e-10
4.75532e-07
0.000105982
0.000967868
0.000783386
0.000100272
1.85087e-06
2.35557e-09
4.91407e-13
1.01441e-12
3.6514e-10
4.77483e-07
8.15356e-05
0.000796206
0.000656987
8.30365e-05
1.43474e-06
8.12398e-09
3.52697e-12
2.2769e-12
4.73903e-10
5.02164e-07
6.12307e-05
0.000671912
0.000563498
6.81548e-05
2.25256e-06
1.49184e-08
5.78397e-11
6.15102e-12
3.77234e-10
4.6242e-07
5.81355e-05
0.000577336
0.00049143
6.97955e-05
1.71555e-06
1.37115e-08
3.09453e-11
5.1347e-12
2.86552e-10
3.89843e-07
5.44144e-05
0.00050533
0.000433907
6.33085e-05
1.50808e-06
1.90495e-08
2.74692e-10
5.53842e-12
6.39807e-10
3.96588e-07
5.11091e-05
0.000448322
0.000387165
6.1405e-05
1.6078e-06
2.24087e-08
1.99777e-10
9.20605e-12
4.28978e-10
3.59864e-07
4.86074e-05
0.000403096
0.000348402
6.02286e-05
1.92722e-06
3.02736e-08
6.04643e-10
1.9036e-11
9.44977e-10
4.48651e-07
4.47502e-05
0.000365433
0.000315666
6.14778e-05
2.50656e-06
5.47553e-08
4.53595e-10
2.46974e-11
6.15573e-10
3.75498e-07
4.11152e-05
0.000335156
0.000287442
6.38125e-05
3.29033e-06
1.02359e-07
3.27368e-09
7.36634e-11
9.08639e-10
4.11414e-07
3.81616e-05
0.000308381
0.000262645
6.84291e-05
4.27001e-06
1.86746e-07
4.54843e-09
2.76483e-10
9.1248e-10
4.08931e-07
3.55775e-05
0.000287271
0.000240336
7.43084e-05
5.77641e-06
3.0797e-07
1.80788e-08
7.0759e-10
9.69305e-10
3.78282e-07
3.27217e-05
0.000266752
0.000219835
7.9509e-05
7.69709e-06
5.76456e-07
2.80787e-08
2.3298e-09
1.10084e-09
3.66719e-07
3.00352e-05
0.000251636
0.00020057
8.83094e-05
9.74819e-06
8.60235e-07
8.80824e-08
1.86823e-09
9.07979e-10
3.2738e-07
2.68144e-05
0.000234492
0.000181822
9.53088e-05
1.31708e-05
1.55579e-06
1.22021e-07
1.4699e-08
2.31037e-09
2.80449e-07
2.39221e-05
0.000223286
0.000163469
0.000108471
1.73792e-05
2.14335e-06
3.18535e-07
2.07453e-08
3.27582e-09
2.25906e-07
2.03899e-05
0.000207342
0.000144669
0.000116063
2.33371e-05
3.61017e-06
4.38242e-07
7.73413e-08
6.05418e-09
1.89406e-07
1.74038e-05
0.000197848
0.000125306
0.000122513
3.45866e-05
5.44913e-06
1.0473e-06
1.14606e-07
1.99362e-08
1.34252e-07
1.37582e-05
0.000181023
0.000104923
0.000128179
5.10803e-05
9.40421e-06
1.55674e-06
3.39795e-07
4.9279e-08
1.17557e-07
1.09422e-05
0.000168642
8.4213e-05
0.000139405
7.25899e-05
1.62004e-05
3.5962e-06
5.76936e-07
1.33712e-07
1.29892e-07
7.59949e-06
0.000145777
6.26694e-05
0.0001498
9.97317e-05
2.76954e-05
6.5433e-06
1.63222e-06
4.86851e-07
2.05577e-07
6.11916e-06
0.000124065
0.11361
0.0198714
0.0176747
0.017667
0.0176666
0.0176666
0.0176669
0.0176747
0.0198659
0.113557
0.0393201
0.00171677
0.00081601
0.000799056
0.000791764
0.000791543
0.000803847
0.000815064
0.00171506
0.0391639
0.0166544
0.000903039
3.78134e-05
3.49156e-05
3.35493e-05
3.56144e-05
3.35533e-05
3.98014e-05
0.000900789
0.0165724
0.00839813
0.000770746
2.36475e-07
7.15225e-08
2.4762e-07
2.01472e-07
1.95649e-07
2.00837e-07
0.000765365
0.0083551
0.00484671
0.00057029
2.14799e-07
2.34748e-11
7.76627e-10
9.10027e-11
1.57141e-10
1.11499e-07
0.00057213
0.00483784
0.00309872
0.000401533
5.14033e-07
1.03774e-12
1.96778e-11
3.72795e-11
1.31456e-12
9.64903e-08
0.000399144
0.00310696
0.00214306
0.000270907
6.28133e-07
1.46741e-11
8.28655e-11
2.27023e-10
1.87528e-11
1.1273e-07
0.00026532
0.00215591
0.00157205
0.000190421
1.66928e-06
5.06896e-10
2.14929e-10
4.96926e-11
1.14495e-10
2.52126e-07
0.000200841
0.00158674
0.00120868
0.000159327
2.44027e-06
2.84315e-09
6.50261e-11
1.05301e-09
7.82587e-11
3.16061e-07
0.000148313
0.00122158
0.000963033
0.000121768
1.79549e-06
4.22464e-09
3.89462e-11
4.02131e-10
1.45008e-10
3.46342e-07
0.000112846
0.000976615
0.000790904
9.59124e-05
2.16267e-06
1.32636e-08
3.47344e-11
1.53334e-09
2.1678e-10
3.78353e-07
9.38676e-05
0.000802784
0.000663957
6.77684e-05
1.97062e-06
1.18776e-08
1.4534e-10
2.1062e-09
3.52641e-10
5.44968e-07
7.46296e-05
0.000676765
0.000569261
6.82149e-05
1.59489e-06
1.08187e-08
1.55429e-11
1.89806e-09
2.02549e-09
6.20218e-07
6.54767e-05
0.000581896
0.00049572
6.1957e-05
1.34671e-06
1.17631e-08
6.78676e-10
1.41453e-09
1.64225e-09
4.87726e-07
4.99911e-05
0.000509279
0.000437405
6.01824e-05
1.41552e-06
1.83886e-08
3.85897e-10
2.61074e-09
1.84563e-09
5.81047e-07
4.96237e-05
0.000452341
0.000390003
6.05398e-05
1.80822e-06
2.42159e-08
4.81714e-10
1.89351e-09
1.74328e-09
4.83181e-07
4.69737e-05
0.000406972
0.000350711
6.3707e-05
2.25876e-06
5.37638e-08
1.45986e-09
3.26002e-09
2.06257e-09
4.89699e-07
4.40148e-05
0.000369115
0.000317566
6.63402e-05
3.03799e-06
7.34404e-08
2.02936e-09
3.62971e-09
2.30407e-09
4.67543e-07
4.16192e-05
0.000338478
0.000288955
7.13049e-05
3.90442e-06
1.55763e-07
4.21223e-09
4.68381e-09
1.74355e-09
4.52034e-07
3.9439e-05
0.000311542
0.000263881
7.55274e-05
5.34058e-06
2.19117e-07
9.74169e-09
5.87108e-09
4.18357e-09
4.61233e-07
3.64953e-05
0.000290176
0.000241368
8.20928e-05
7.08938e-06
4.50568e-07
1.52411e-08
8.1462e-09
4.4784e-09
4.35096e-07
3.29174e-05
0.000269566
0.000220703
8.73647e-05
9.70506e-06
7.21582e-07
4.32663e-08
8.44813e-09
4.85314e-09
3.98159e-07
3.00148e-05
0.000254182
0.000201323
9.54397e-05
1.23086e-05
1.24711e-06
7.14402e-08
1.9818e-08
9.2442e-09
3.53294e-07
2.67841e-05
0.00023699
0.000182491
0.000101833
1.73821e-05
2.06578e-06
2.29156e-07
2.66598e-08
7.5197e-09
2.94109e-07
2.34749e-05
0.000225447
0.000164091
0.000113887
2.12673e-05
3.68808e-06
4.07474e-07
8.26544e-08
2.45725e-08
2.39866e-07
1.98834e-05
0.000209349
0.00014549
0.000122187
2.86309e-05
5.12071e-06
9.65448e-07
1.26922e-07
2.74057e-08
1.84325e-07
1.64734e-05
0.000199486
0.000126424
0.0001269
3.90965e-05
8.94251e-06
1.45153e-06
3.48815e-07
1.01899e-07
1.51746e-07
1.29605e-05
0.000182011
0.00010663
0.000131423
5.42836e-05
1.12986e-05
2.86357e-06
5.02383e-07
1.2179e-07
1.81944e-07
1.00122e-05
0.000170787
8.68727e-05
0.000141656
7.50659e-05
1.79913e-05
3.94656e-06
1.0828e-06
3.62928e-07
2.05523e-07
6.95205e-06
0.000146206
6.72375e-05
0.000151522
0.000101276
2.8536e-05
7.78424e-06
1.83985e-06
5.3733e-07
3.31715e-07
5.57285e-06
0.000125046
0.113685
0.0198836
0.0176821
0.0176746
0.0176743
0.0176743
0.0176747
0.0176821
0.0198782
0.113633
0.0394978
0.001731
0.000836863
0.000826051
0.0008205
0.000820559
0.000804751
0.000819463
0.00172943
0.0393418
0.0168005
0.00091732
4.50207e-05
3.92111e-05
3.8371e-05
3.86984e-05
4.00084e-05
7.23993e-05
0.0009151
0.0167168
0.00849501
0.000779527
1.44433e-06
4.69336e-07
4.43039e-07
4.00333e-07
4.82381e-07
1.71245e-06
0.000777165
0.00845036
0.00490879
0.00059158
9.01969e-07
3.04271e-07
2.5194e-07
2.62245e-07
1.89539e-07
5.53277e-07
0.000585938
0.00489946
0.00313933
0.000410365
8.25743e-07
4.42262e-07
2.98502e-07
3.314e-07
2.07373e-07
7.02964e-07
0.000403407
0.00314656
0.00216718
0.00025448
6.67421e-07
6.26864e-07
2.96548e-07
4.19841e-07
3.96608e-07
9.03347e-07
0.000275736
0.00218253
0.00159149
0.000258386
5.4898e-07
6.56159e-07
3.79637e-07
4.69298e-07
2.99793e-07
7.60405e-07
0.000170882
0.00160486
0.00122246
0.000218944
5.84838e-07
8.85886e-07
2.00545e-07
7.21687e-07
1.95413e-07
7.94059e-07
0.000181266
0.00123465
0.000973523
0.000157901
7.5892e-07
6.28901e-07
1.36508e-07
6.31705e-07
2.47488e-07
7.28338e-07
0.000135295
0.000984783
0.000798631
0.000101331
7.48791e-07
1.00864e-06
1.56538e-07
1.23815e-06
3.35416e-07
4.17321e-07
9.28796e-05
0.000808902
0.00067078
7.92973e-05
7.11612e-07
1.11331e-06
1.76985e-07
7.93515e-07
4.33384e-07
3.93477e-07
7.75931e-05
0.000680031
0.000574584
6.46761e-05
5.16859e-07
1.05241e-06
1.54728e-07
9.87619e-07
6.15849e-07
4.64355e-07
6.38058e-05
0.000583736
0.000500339
5.32991e-05
8.86042e-07
9.96702e-07
2.6059e-07
6.74292e-07
5.7587e-07
4.5462e-07
5.57136e-05
0.000509912
0.000441595
5.80685e-05
8.83538e-07
9.0233e-07
2.56121e-07
6.2531e-07
4.18169e-07
5.86499e-07
5.09707e-05
0.000451648
0.000393744
5.46844e-05
1.18569e-06
7.35806e-07
2.59123e-07
5.70634e-07
4.00054e-07
6.57227e-07
4.76488e-05
0.000405205
0.000354122
5.43625e-05
1.60616e-06
6.69792e-07
2.98644e-07
6.07049e-07
3.75776e-07
7.95454e-07
4.54231e-05
0.000366755
0.000320604
5.77349e-05
2.01269e-06
7.68628e-07
3.46352e-07
6.47206e-07
4.23793e-07
8.18998e-07
4.37775e-05
0.000335833
0.00029173
6.20069e-05
2.60595e-06
8.56273e-07
3.85649e-07
7.47439e-07
4.48193e-07
1.12345e-06
4.16431e-05
0.000308765
0.000266393
6.96929e-05
3.51132e-06
1.11224e-06
4.67402e-07
8.67951e-07
5.67801e-07
9.57542e-07
3.97403e-05
0.000287321
0.000243674
7.60976e-05
4.60374e-06
1.22688e-06
5.71722e-07
8.68978e-07
6.03248e-07
1.22028e-06
3.71525e-05
0.000266895
0.000222793
8.43234e-05
6.90958e-06
1.59807e-06
7.14054e-07
1.13402e-06
7.06295e-07
1.15791e-06
3.46736e-05
0.000251599
0.000203054
9.25136e-05
9.45173e-06
2.00299e-06
8.97127e-07
1.25438e-06
8.27719e-07
1.13387e-06
3.14219e-05
0.000234871
0.000183931
0.000106512
1.40174e-05
3.04667e-06
1.19343e-06
1.28116e-06
1.01302e-06
1.19819e-06
2.85587e-05
0.000223558
0.000165221
0.000120791
1.92259e-05
4.01322e-06
1.57012e-06
1.93913e-06
1.22372e-06
1.37899e-06
2.49318e-05
0.000208397
0.000145876
0.000127976
2.78299e-05
6.92934e-06
2.23333e-06
2.0432e-06
1.65236e-06
1.65416e-06
2.20458e-05
0.000199147
0.000125836
0.000133361
4.21225e-05
9.0477e-06
3.21621e-06
3.10175e-06
2.07575e-06
2.07179e-06
1.83735e-05
0.000183248
0.000104758
0.00014397
6.70914e-05
1.64048e-05
5.05359e-06
3.33948e-06
2.77917e-06
2.61518e-06
1.58775e-05
0.000173198
8.43221e-05
0.000160198
9.71019e-05
2.73686e-05
9.04725e-06
5.2814e-06
3.58637e-06
3.48848e-06
1.32872e-05
0.000150783
6.91109e-05
0.000181761
0.000141552
5.48149e-05
1.88515e-05
7.86371e-06
5.33292e-06
4.62065e-06
1.38653e-05
0.000135245
0.114011
0.0221472
0.0198788
0.0198665
0.0198676
0.0198675
0.0198664
0.0198787
0.0221422
0.113961
0.0397988
0.00241104
0.0017306
0.00171583
0.0017146
0.00171444
0.00171587
0.00173018
0.00239421
0.0396472
0.0169679
0.00154312
0.000916723
0.000902072
0.000900476
0.000900974
0.000902492
0.000915502
0.0015261
0.0168699
0.00857814
0.00132556
0.000779872
0.000767929
0.000766763
0.000760652
0.0007615
0.000778555
0.00132414
0.00850693
0.00495532
0.0012787
0.000596481
0.000578193
0.000577583
0.000588171
0.000585273
0.000587792
0.00121871
0.00492004
0.00316245
0.000921563
0.000414045
0.000407472
0.000406468
0.000387747
0.000383306
0.000408674
0.000978484
0.00315173
0.00216771
0.000720353
0.000276497
0.000272521
0.000271627
0.000276588
0.00027387
0.000271442
0.00069743
0.00218042
0.00157644
0.000580228
0.00020054
0.000203741
0.00020476
0.000182834
0.000182107
0.000188582
0.00051518
0.00159204
0.00120335
0.000388323
0.000149654
0.000148318
0.00013887
0.000176356
0.00017243
0.000147522
0.000390483
0.00121776
0.000952471
0.000293147