/*--------------------------------*- C++ -*----------------------------------*\
| =========                 |                                                 |
| \\      /  F ield         | OpenFOAM: The Open Source CFD Toolbox           |
|  \\    /   O peration     | Version:  4.1                                   |
|   \\  /    A nd           | Web:      www.OpenFOAM.org                      |
|    \\/     M anipulation  |                                                 |
\*---------------------------------------------------------------------------*/
FoamFile
{
    version     2.0;
    format      ascii;
    class       volScalarField;
    location    "1900";
    object      nut;
}
// * * * * * * * * * * * * * * * * * * * * * * * * * * * * * * * * * * * * * //

dimensions      [0 2 -1 0 0 0 0];

internalField   nonuniform List<scalar> 
12000
(
0.00382367
0.00374537
0.00374124
0.00373998
0.00373965
0.00373962
0.0037399
0.00374127
0.00374909
0.00382838
0.00226282
0.0022366
0.00223479
0.00223002
0.00222846
0.00222845
0.00222994
0.00223406
0.00223499
0.00225889
0.00146332
0.0014603
0.00146295
0.00145687
0.0014545
0.00145451
0.0014569
0.00146256
0.00145947
0.00146313
0.00103212
0.00104855
0.00104539
0.00103924
0.00103687
0.00103692
0.00103945
0.00104506
0.00104664
0.00103287
0.000779224
0.000807026
0.000797677
0.000791361
0.000788817
0.000788887
0.000791511
0.000796809
0.000807246
0.000782666
0.000618358
0.000650673
0.000637444
0.000632158
0.000629637
0.000629596
0.000631993
0.000636244
0.000649057
0.000622432
0.000509251
0.00053501
0.000528938
0.000524541
0.00052216
0.000522173
0.000524401
0.000527487
0.00053908
0.000514528
0.000434303
0.000458048
0.000451073
0.000448364
0.000446691
0.000446681
0.000448546
0.000450975
0.000459778
0.00043816
0.000378369
0.000394237
0.000395538
0.000392018
0.000390902
0.000390856
0.000393318
0.000394269
0.000397546
0.000381906
0.00033654
0.000348375
0.000352623
0.000350557
0.000348098
0.000348143
0.000351455
0.000352659
0.00034972
0.000339331
0.000303952
0.000313425
0.000318413
0.000316878
0.000315829
0.000315955
0.000317469
0.00031868
0.000313497
0.000306392
0.000277884
0.000286865
0.000291668
0.000289835
0.000289388
0.000289365
0.000289305
0.000291925
0.000287087
0.0002805
0.000256356
0.000264763
0.000268834
0.000268412
0.000266478
0.000267257
0.000268479
0.000270335
0.00026622
0.000259542
0.000238392
0.000246939
0.000251355
0.000251263
0.000249393
0.000249998
0.0002517
0.000253133
0.000248707
0.000242241
0.000223165
0.000232205
0.000236832
0.000236564
0.00023577
0.000235992
0.000237372
0.000238588
0.00023423
0.000227804
0.000210034
0.000219687
0.000224511
0.000224107
0.000223594
0.000223799
0.000224978
0.000226301
0.000222008
0.000215642
0.00019848
0.000208709
0.000213738
0.000213287
0.000212867
0.000213254
0.000214314
0.000215712
0.000211634
0.000205334
0.00018811
0.000198889
0.000204144
0.000203916
0.000203657
0.000204183
0.000205175
0.000206539
0.000202677
0.000196504
0.000178611
0.000190148
0.00019561
0.000195648
0.000195508
0.000196057
0.000197175
0.000198666
0.000195013
0.000188981
0.000169665
0.000181995
0.000187933
0.000188326
0.000188428
0.00018915
0.000190343
0.000191802
0.000188319
0.00018247
0.000160997
0.00017449
0.000180857
0.000181674
0.000181953
0.000182814
0.00018414
0.000185873
0.000182735
0.000177051
0.000152226
0.000167111
0.000174344
0.000175681
0.000176333
0.000177432
0.00017881
0.00018063
0.000177821
0.000172338
0.000142897
0.000159412
0.000168092
0.000170032
0.000170946
0.000172225
0.000173997
0.000176187
0.000173977
0.000168713
0.000132255
0.000151275
0.000161813
0.000164895
0.000166235
0.00016799
0.000169774
0.0001722
0.000170535
0.000165566
0.000119185
0.000141609
0.000155268
0.000159428
0.00016129
0.000163454
0.000165905
0.000169011
0.000168176
0.000163767
9.99186e-05
0.000129478
0.000147676
0.000154434
0.000157342
0.000159763
0.000162236
0.000165951
0.000165954
0.000161957
7.29245e-05
0.000112437
0.000137712
0.000147749
0.000151604
0.000155307
0.000158753
0.000163861
0.000164599
0.00016329
6.20951e-05
9.04054e-05
0.000123306
0.000138614
0.000147399
0.000151
0.000155035
0.000160558
0.000164363
0.000161183
7.25671e-05
8.52582e-05
9.9045e-05
0.000119659
0.000134534
0.000146286
0.000149465
0.000159508
0.000162211
0.000169252
9.21294e-05
0.000103582
0.000106973
0.000100584
0.000119234
0.00012416
0.000142418
0.000149419
0.00016399
0.000166673
0.00374537
6.17728e-05
5.07224e-05
5.06869e-05
5.06956e-05
5.06955e-05
5.06868e-05
5.07219e-05
6.17276e-05
0.0037419
0.00223653
1.05521e-05
7.76078e-06
7.73335e-06
7.72114e-06
7.71863e-06
7.72486e-06
7.74205e-06
9.9678e-06
0.00220651
0.00146016
3.1546e-05
2.67969e-05
2.6521e-05
2.62957e-05
2.63221e-05
2.62955e-05
2.64894e-05
2.88946e-05
0.00143349
0.00104831
0.000102886
0.000121453
0.000120009
0.00012108
0.000120382
0.000120942
0.00011937
8.86027e-05
0.00101991
0.000806752
0.000225102
0.000244433
0.000243165
0.000236194
0.000235155
0.000234173
0.000237141
0.000212309
0.000787265
0.000650408
0.000306575
0.000274131
0.000261075
0.000270007
0.000264334
0.000259341
0.000268983
0.000262364
0.00063634
0.000534661
0.000258397
0.000255199
0.000235733
0.000234674
0.000237609
0.000253204
0.000249486
0.000242594
0.000534159
0.0004577
0.000209199
0.000177082
0.000131275
0.000162781
0.000147129
0.000123221
0.000146615
0.000223442
0.00045863
0.000393712
0.000160423
0.000171973
8.40219e-05
9.68767e-05
8.49328e-05
0.000116337
8.95313e-05
0.000176665
0.000398581
0.000347727
0.00017143
0.000147114
5.63081e-05
7.09931e-05
6.53422e-05
7.99017e-05
6.99759e-05
0.00020208
0.000352076
0.000312659
8.0914e-05
9.52578e-05
6.5381e-05
5.28119e-05
5.03627e-05
8.69101e-05
5.05265e-05
0.000125077
0.0003162
0.000285907
8.89109e-05
8.21425e-05
2.91735e-05
7.56603e-05
6.94136e-05
3.79876e-05
5.55775e-05
8.96993e-05
0.000289735
0.00026365
9.78447e-05
3.08053e-05
2.44987e-05
2.84956e-05
3.50635e-05
4.04955e-05
3.28863e-05
8.58717e-05
0.000268343
0.000245599
0.000104493
3.124e-05
3.47612e-05
2.31164e-05
2.6985e-05
4.13434e-05
3.03354e-05
9.80227e-05
0.000250508
0.000230585
0.000112244
2.62844e-05
3.46615e-05
3.39408e-05
3.59915e-05
4.54548e-05
2.82625e-05
0.000104758
0.000235682
0.000217747
0.000112082
3.59883e-05
3.69613e-05
3.02378e-05
3.36172e-05
4.38608e-05
3.25052e-05
0.000102995
0.000223362
0.000206409
0.00011413
3.54169e-05
3.77313e-05
3.21493e-05
3.5116e-05
4.50083e-05
3.32716e-05
0.000101327
0.000212788
0.000196157
0.000116292
3.20824e-05
3.61115e-05
3.18084e-05
3.58058e-05
4.51955e-05
3.42097e-05
0.000100623
0.000203874
0.000186943
0.000125103
3.5475e-05
3.79247e-05
3.21599e-05
3.41405e-05
4.28891e-05
3.6895e-05
9.9331e-05
0.000195835
0.000178231
0.000132784
3.93111e-05
3.98345e-05
3.4408e-05
3.72941e-05
4.50005e-05
3.92659e-05
9.93763e-05
0.000189137
0.000170193
0.000140422
4.57463e-05
4.09658e-05
3.56388e-05
3.88376e-05
4.70709e-05
4.15474e-05
9.76466e-05
0.000182812
0.000162255
0.00014313
5.2303e-05
4.39488e-05
4.01086e-05
3.88889e-05
4.71565e-05
4.43834e-05
9.77978e-05
0.000177718
0.000154123
0.000148738
5.83065e-05
4.64486e-05
4.29364e-05
4.1745e-05
5.0348e-05
4.69113e-05
9.55838e-05
0.00017259
0.000145704
0.000154792
7.41695e-05
5.38134e-05
4.53874e-05
3.95942e-05
5.12475e-05
5.00419e-05
9.57152e-05
0.000168698
0.000136458
0.000159159
8.93484e-05
5.87806e-05
4.76149e-05
4.82516e-05
5.20918e-05
5.08564e-05
9.22433e-05
0.000164283
0.000125542
0.000170127
0.000111181
7.45087e-05
5.39938e-05
4.88447e-05
5.38985e-05
5.57669e-05
9.20926e-05
0.00016181
0.000112123
0.00017898
0.000125903
7.39098e-05
5.48195e-05
4.97634e-05
4.93243e-05
5.57451e-05
8.70734e-05
0.000156415
9.60702e-05
0.000195079
0.000169361
9.19884e-05
6.74242e-05
5.58502e-05
6.29056e-05
6.26088e-05
8.87786e-05
0.000158236
8.57523e-05
0.00020837
0.000197108
0.00012511
8.07993e-05
6.03941e-05
5.3849e-05
6.00105e-05
8.41055e-05
0.000147648
8.70701e-05
0.000232587
0.000233048
0.000194541
0.000123956
8.12313e-05
6.77495e-05
6.65781e-05
8.74002e-05
0.000165282
0.00374124
5.07249e-05
4.12481e-05
4.12299e-05
4.12322e-05
4.12316e-05
4.12298e-05
4.12475e-05
5.06909e-05
0.00373243
0.00223473
7.76312e-06
3.09418e-06
3.0805e-06
3.22395e-06
3.11278e-06
3.23319e-06
3.35132e-06
7.75173e-06
0.00219918
0.00146278
2.68032e-05
5.6062e-07
2.75372e-07
3.47881e-07
2.8839e-07
3.53802e-07
5.05003e-07
2.65347e-05
0.00143368
0.00104515
0.000122306
1.33474e-09
2.86239e-11
1.98457e-08
2.57299e-11
2.17611e-08
3.69137e-08
0.000121802
0.00101957
0.00079728
0.000240902
4.02487e-09
1.13621e-11
3.56672e-07
1.22312e-11
4.45615e-07
1.25276e-06
0.000238818
0.000782005
0.000637175
0.000279538
1.59033e-07
1.42272e-10
1.94468e-06
3.85411e-11
2.3525e-06
2.92636e-06
0.000299593
0.00063102
0.000528306
0.000258203
3.92638e-06
2.34997e-09
1.13691e-06
1.57124e-10
2.99912e-06
2.14776e-06
0.000189706
0.000527688
0.000451284
0.000156724
1.03378e-05
6.20347e-08
1.53162e-06
1.47986e-09
3.86832e-06
1.18836e-06
0.00046381
0.000453642
0.000394356
9.76607e-05
4.96415e-06
2.42502e-07
2.05189e-06
5.01891e-09
3.42135e-06
6.75747e-07
0.000348697
0.000398803
0.000351376
5.96493e-05
2.4385e-06
5.78405e-07
7.75089e-07
2.96987e-08
1.98647e-06
4.89503e-07
0.000171872
0.000356277
0.000317651
5.42204e-05
1.50431e-06
6.33752e-07
1.76643e-06
1.53024e-07
5.70009e-07
3.00237e-07
7.78657e-05
0.000321518
0.000290222
2.30923e-05
1.55677e-06
1.44344e-06
9.88775e-07
6.10065e-07
2.69988e-06
1.73198e-07
6.16359e-05
0.000294337
0.000268771
3.30537e-05
5.12529e-07
4.61337e-07
1.56702e-06
7.86692e-07
7.21263e-07
3.23345e-07
3.17313e-05
0.000271634
0.000250903
3.38244e-05
5.24439e-07
2.89362e-07
2.31385e-07
1.52353e-06
7.24175e-07
2.20869e-07
3.59857e-05
0.000253772
0.000235689
3.63703e-05
7.58432e-07
3.2236e-07
2.71579e-07
7.13045e-07
6.14531e-07
2.01454e-07
3.5429e-05
0.000238821
0.000222663
4.4209e-05
1.17436e-06
3.99177e-07
3.92398e-07
9.4889e-07
6.78294e-07
2.95893e-07
3.44783e-05
0.000226232
0.000211294
4.90079e-05
1.7897e-06
6.43276e-07
5.6038e-07
3.92703e-07
8.73753e-07
3.59635e-07
3.28911e-05
0.000215071
0.000201118
5.68024e-05
2.51984e-06
8.38431e-07
5.0994e-07
5.08002e-07
1.35553e-06
4.66449e-07
3.34409e-05
0.000205739
0.000191882
6.34909e-05
3.69526e-06
1.09066e-06
8.82802e-07
6.0633e-07
1.5651e-06
6.49784e-07
3.35427e-05
0.000197294
0.000183423
7.1108e-05
5.07401e-06
1.32842e-06
9.99834e-07
9.36947e-07
1.709e-06
8.19445e-07
3.34462e-05
0.000190391
0.000175529
7.63741e-05
6.83762e-06
1.6674e-06
1.09268e-06
1.04366e-06
1.87905e-06
1.02742e-06
3.23941e-05
0.000183572
0.000167835
8.22176e-05
9.6985e-06
1.77545e-06
1.37273e-06
1.07766e-06
1.99488e-06
1.20999e-06
3.15866e-05
0.000178316
0.000160484
9.55897e-05
1.2924e-05
2.33697e-06
1.29711e-06
9.08673e-07
1.86595e-06
1.50155e-06
2.95639e-05
0.00017237
0.000152382
0.000101926
1.63517e-05
3.12551e-06
2.46642e-06
1.81593e-06
2.75055e-06
1.77976e-06
2.78369e-05
0.000168206
0.000145154
0.000128422
2.23361e-05
4.1996e-06
3.06797e-06
2.43541e-06
2.84922e-06
1.96059e-06
2.49455e-05
0.000162413
0.000136264
0.000123868
2.85208e-05
7.40222e-06
2.44125e-06
1.35418e-06
2.44571e-06
2.37532e-06
2.29031e-05
0.000158581
0.000126369
0.000129472
4.07373e-05
8.98891e-06
4.08597e-06
2.82838e-06
2.47199e-06
2.48012e-06
1.93064e-05
0.000152687
0.000115139
0.00014488
7.16483e-05
1.73183e-05
4.50417e-06
2.31727e-06
2.76086e-06
3.23529e-06
1.79381e-05
0.0001453
0.000103297
0.000162168
0.000106553
3.07278e-05
1.10619e-05
4.9462e-06
3.21879e-06
3.97492e-06
1.38011e-05
0.000141377
9.30332e-05
0.000186626
0.000155057
6.47547e-05
2.09716e-05
6.921e-06
4.18623e-06
4.18023e-06
1.31329e-05
0.000119318
0.00373998
5.06894e-05
4.12298e-05
4.12124e-05
4.12147e-05
4.12154e-05
4.12128e-05
4.12301e-05
5.06556e-05
0.00373083
0.00222994
7.72993e-06
3.05847e-06
3.00909e-06
2.98278e-06
3.18743e-06
2.9619e-06
3.23397e-06
7.73742e-06
0.00219451
0.00145667
2.64751e-05
1.94737e-07
1.72301e-07
1.67003e-07
3.12935e-07
1.58683e-07
3.62615e-07
2.63736e-05
0.00142862
0.00103908
0.000121265
2.22208e-10
4.8035e-09
3.15561e-09
8.93458e-09
4.75061e-09
2.46919e-08
0.000121776
0.00101549
0.000791041
0.000238965
6.58128e-10
5.54845e-13
1.6814e-12
4.0607e-12
9.6823e-11
2.50642e-07
0.000238498
0.000777872
0.00063159
0.000264598
1.30858e-09
2.21446e-16
9.40094e-11
3.61173e-16
3.17934e-10
2.84112e-07
0.000279509
0.000627246
0.000524158
0.000254745
1.92141e-09
1.02976e-12
3.27687e-09
2.37901e-15
3.16935e-09
4.16371e-07
0.000247021
0.000524285
0.000447889
0.000133586
6.3677e-09
1.11847e-10
2.76607e-08
1.52635e-12
1.01905e-08
8.70303e-07
0.000203298
0.000450658
0.000391962
0.000127187
3.32302e-08
7.55619e-10
3.13088e-08
1.41086e-11
8.93281e-09
1.17576e-07
9.0403e-05
0.000395335
0.000349894
0.000142524
1.55205e-07
4.84734e-09
2.02893e-08
1.32754e-10
1.10139e-08
7.85943e-08
0.000105354
0.000352769
0.00031602
6.81521e-05
3.20459e-07
7.8501e-09
1.09398e-08
1.2779e-10
9.82161e-09
2.3121e-08
9.59936e-05
0.000319874
0.000289621
7.83785e-05
1.13114e-06
1.46991e-08
1.75644e-08
4.36156e-09
4.61395e-10
4.22129e-08
9.74747e-05
0.000293284
0.000268741
7.92296e-05
2.35417e-06
1.1709e-08
3.69814e-09
3.67875e-09
3.25184e-10
7.25309e-09
3.27221e-05
0.000271009
0.000249688
8.69574e-05
3.49051e-06
5.772e-08
2.43321e-09
7.63545e-09
4.76812e-10
3.56851e-08
3.28002e-05
0.000253248
0.000234584
7.19315e-05
3.99462e-06
3.65435e-08
3.30006e-10
1.41145e-08
9.72799e-10
6.16629e-08
3.08864e-05
0.000238787
0.000221508
5.13696e-05
2.54675e-06
5.6999e-08
5.92193e-10
1.67422e-09
1.76013e-09
1.6699e-07
3.08618e-05
0.000226479
0.0002102
6.0517e-05
2.5841e-06
3.94775e-08
1.8729e-09
3.99175e-09
3.06643e-09
4.98424e-08
2.78285e-05
0.000215665
0.00020013
5.65906e-05
2.56137e-06
1.06497e-07
1.73639e-09
2.71237e-09
5.13601e-09
2.06987e-07
2.75838e-05
0.000206436
0.000190939
5.76234e-05
2.8005e-06
9.53447e-08
7.80233e-09
3.45818e-09
6.98877e-09
2.08858e-07
2.76257e-05
0.000198072
0.00018253
6.13862e-05
4.12307e-06
3.55395e-07
6.19888e-09
1.15538e-09
8.03151e-09
2.35035e-07
2.70792e-05
0.000191175
0.000174662
6.49728e-05
4.42295e-06
5.02781e-07
3.61689e-08
9.71296e-09
1.09169e-08
2.58862e-07
2.59545e-05
0.000184415
0.000167082
7.17121e-05
6.94427e-06
3.44291e-07
8.1833e-08
1.06017e-08
9.23943e-09
2.57904e-07
2.4596e-05
0.000179124
0.000159477
8.27918e-05
9.25707e-06
1.28287e-06
3.58092e-08
2.27663e-08
2.51134e-08
2.43148e-07
2.25118e-05
0.000173057
0.000151887
9.72599e-05
1.36116e-05
1.291e-06
3.41278e-07
4.02899e-09
3.17232e-08
2.23907e-07
2.03605e-05
0.000168935
0.00014427
0.000109015
1.74184e-05
4.17194e-06
2.87709e-07
1.09169e-07
2.21598e-08
2.1467e-07
1.76596e-05
0.000162706
0.000136057
0.000115711
2.51496e-05
3.68877e-06
1.35758e-06
9.16208e-08
8.83185e-08
2.08964e-07
1.5195e-05
0.000159045
0.00012702
0.000123239
3.29769e-05
7.67741e-06
9.49743e-07
3.19037e-07
4.33087e-08
1.92206e-07
1.23411e-05
0.000151735
0.000116618
0.00013057
5.43907e-05
9.25577e-06
2.63556e-06
3.12861e-07
2.3659e-07
1.92609e-07
9.59569e-06
0.000148157
0.000105147
0.000144477
7.95524e-05
1.80484e-05
3.0561e-06
7.84003e-07
1.14889e-07
1.93785e-07
7.0508e-06
0.000133825
9.17596e-05
0.000158567
0.000116747
3.35278e-05
8.87729e-06
1.67452e-06
5.48972e-07
1.65227e-07
4.52297e-06
0.000136832
0.00373964
5.06981e-05
4.12321e-05
4.12147e-05
4.1218e-05
4.12177e-05
4.12155e-05
4.12314e-05
5.06641e-05
0.0037305
0.00222838
7.72235e-06
3.15097e-06
2.9815e-06
3.18362e-06
3.20469e-06
3.12411e-06
2.99674e-06
7.7246e-06
0.00219303
0.00145433
2.63276e-05
2.62962e-07
1.6634e-07
3.1735e-07
3.53215e-07
2.44528e-07
2.10298e-07
2.62855e-05
0.00142653
0.0010366
0.000120687
5.17685e-09
3.02557e-09
6.05517e-09
5.84545e-09
6.84851e-09
1.74682e-08
0.000120863
0.00101362
0.000788539
0.000238305
3.71717e-07
2.14157e-12
2.11562e-11
2.8754e-11
8.67335e-12
2.75142e-07
0.000237712
0.000775872
0.000629127
0.000262811
1.08442e-06
2.45211e-10
1.08497e-13
3.81727e-13
1.97839e-12
8.92416e-07
0.000272193
0.000625096
0.000521811
0.000235026
1.48714e-06
1.21025e-08
1.19843e-12
1.32806e-16
3.33967e-10
7.87093e-07
0.000260296
0.000522185
0.000445607
0.000146714
4.32664e-06
4.05491e-08
6.18079e-10
2.4683e-15
3.37738e-10
7.11274e-07
0.000162539
0.000448564
0.000390091
9.14476e-05
8.64991e-06
9.24431e-09
1.1834e-10
3.14584e-15
6.37325e-11
4.11312e-07
0.000157543
0.000394061
0.000347103
6.07377e-05
6.89211e-06
1.87924e-07
6.9442e-10
1.66691e-13
8.0894e-11
2.76742e-07
9.4945e-05
0.000351568
0.000315075
7.75197e-05
6.18502e-06
1.45664e-07
1.11051e-09
5.33756e-13
1.94905e-12
2.43768e-07
0.000101322
0.000317529
0.000287086
3.67361e-05
3.00036e-06
1.03855e-07
1.11906e-09
6.76554e-12
7.06303e-12
2.6773e-08
6.84384e-05
0.000292537
0.000265388
3.93592e-05
9.37248e-07
3.21322e-08
1.37208e-10
2.13363e-11
1.44775e-11
3.35108e-08
6.76388e-05
0.0002703
0.000248214
3.55171e-05
4.46267e-06
3.32292e-08
7.2654e-11
4.75844e-11
2.46525e-15
1.46079e-09
3.34967e-05
0.000251163
0.000233626
4.62429e-05
1.42596e-06
6.02389e-09
3.74809e-11
6.20303e-14
2.96973e-12
2.70802e-08
3.31395e-05
0.000236907
0.000220894
4.83604e-05
1.29004e-06
2.92656e-08
2.35229e-10
1.64462e-13
3.32634e-12
5.52729e-08
3.06569e-05
0.00022501
0.000209531
4.43909e-05
1.31965e-06
2.52416e-08
1.58067e-10
6.49658e-11
8.01704e-11
1.4338e-07
3.24362e-05
0.000214323
0.000199512
4.47855e-05
1.86662e-06
1.02706e-07
1.54766e-09
4.34916e-13
4.07314e-11
9.87227e-08
2.77181e-05
0.000205302
0.000190403
4.95003e-05
2.96479e-06
7.42737e-08
1.27233e-09
8.81007e-11
9.17613e-12
7.2913e-08
2.69394e-05
0.000196862
0.000181967
5.61166e-05
4.04674e-06
3.12484e-07
8.09792e-09
3.23048e-10
2.42795e-10
9.38193e-08
2.74581e-05
0.000190063
0.000174097
6.42922e-05
6.26939e-06
2.83234e-07
1.68151e-08
9.00367e-09
1.88794e-10
7.03122e-08
2.67295e-05
0.000183242
0.000166481
7.26006e-05
9.09203e-06
8.6597e-07
1.28792e-08
8.1174e-09
3.63044e-10
1.63033e-07
2.56623e-05
0.00017817
0.000159047
8.34299e-05
1.5104e-05
1.00926e-06
2.03088e-07
8.78256e-09
8.81381e-10
1.691e-07
2.36108e-05
0.000172116
0.000151495
9.21434e-05
1.89969e-05
3.08035e-06
1.44438e-07
5.42845e-08
4.45398e-09
1.18352e-07
2.14446e-05
0.000168101
0.000143732
0.000108491
2.76492e-05
4.21704e-06
8.87346e-07
2.60329e-08
3.06136e-09
1.23934e-07
1.85541e-05
0.000162056
0.000135563
0.000116447
3.13928e-05
9.49048e-06
9.03307e-07
3.28138e-07
8.24178e-08
1.001e-07
1.58808e-05
0.000158253
0.000126456
0.00012472
4.48974e-05
8.68234e-06
2.90421e-06
2.39089e-07
1.67729e-08
1.17918e-07
1.27212e-05
0.00015145
0.000115813
0.000131177
5.58949e-05
1.36313e-05
2.21421e-06
8.4925e-07
5.10635e-07
1.09937e-07
9.80486e-06
0.000145494
0.000103608
0.000144605
7.98502e-05
1.78932e-05
5.02961e-06
6.73159e-07
1.02179e-07
2.50188e-07
6.93993e-06
0.000137615
8.84975e-05
0.000156846
0.000116222
3.36192e-05
7.21661e-06
1.97134e-06
6.73096e-07
9.08833e-08
4.48723e-06
0.000116946
0.00373962
5.06981e-05
4.12338e-05
4.12156e-05
4.1217e-05
4.12178e-05
4.12146e-05
4.12322e-05
5.06641e-05
0.00373051
0.00222838
7.71878e-06
3.29266e-06
3.15638e-06
3.031e-06
3.19945e-06
2.95069e-06
3.25788e-06
7.72101e-06
0.00219307
0.00145434
2.63627e-05
5.77812e-07
2.7741e-07
1.91142e-07
3.44807e-07
1.79926e-07
4.1388e-07
2.62074e-05
0.00142667
0.00103663
0.000121117
4.19303e-09
1.02412e-08
3.56196e-09
5.8887e-09
3.55091e-09
2.32494e-08
0.000120745
0.00101387
0.000788509
0.000234221
8.48189e-09
1.16993e-10
5.07216e-11
9.10594e-13
6.12849e-12
2.21026e-07
0.000236203
0.000776105
0.000629148
0.000260211
3.56318e-08
4.14445e-12
8.51718e-14
8.18049e-15
5.9539e-11
7.01206e-07
0.000273417
0.000625188
0.00052152
0.000242366
6.93498e-08
2.10086e-13
4.03459e-19
2.31123e-13
1.14179e-09
1.05864e-06
0.000253313
0.000522136
0.000446074
0.00013152
1.33677e-07
3.21098e-11
2.06633e-16
3.21185e-14
1.48175e-09
7.27771e-07
0.000172941
0.000448724
0.00038979
8.81817e-05
4.46735e-07
4.11037e-11
1.32936e-15
1.78709e-13
1.74195e-09
6.63687e-07
0.00010588
0.000393536
0.000348202
6.14557e-05
7.63336e-07
2.08535e-11
1.42143e-17
6.57395e-15
8.68394e-10
3.08056e-07
6.64644e-05
0.00035148
0.000314598
7.14673e-05
1.18332e-06
1.08203e-10
7.75574e-16
1.33341e-12
2.02813e-10
2.70814e-07
4.5431e-05
0.000318272
0.000286799
3.5011e-05
1.00218e-06
2.1882e-09
3.45506e-14
2.8725e-12
3.01804e-10
3.50771e-07
4.21594e-05
0.000291623
0.000265391
3.35093e-05
4.33309e-06
1.61373e-08
1.90194e-11
5.15633e-12
2.39798e-10
3.31813e-07
3.11229e-05
0.000269851
0.000248395
4.62377e-05
1.75668e-06
1.79778e-08
1.8204e-11
4.21337e-12
1.16966e-10
2.85699e-07
3.56664e-05
0.000252317
0.000233546
4.39786e-05
1.50614e-06
3.4925e-08
5.85668e-10
3.05711e-12
4.87797e-10
3.10391e-07
3.87443e-05
0.000237734
0.000220779
4.37988e-05
8.69177e-07
1.11121e-08
1.80163e-10
6.45785e-12
2.01886e-10
2.35235e-07
3.93732e-05
0.00022533
0.000209491
4.36813e-05
1.36701e-06
1.53661e-08
3.81708e-10
2.2934e-11
9.76194e-10
4.31418e-07
3.54975e-05
0.000214518
0.000199451
4.61919e-05
1.84833e-06
4.1067e-08
1.30783e-10
1.30383e-11
3.86173e-10
2.86269e-07
3.32769e-05
0.000205442
0.000190374
5.17717e-05
2.68151e-06
8.66061e-08
3.60646e-09
6.34535e-11
8.49734e-10
3.80785e-07
3.20154e-05
0.000197087
0.00018196
5.86846e-05
3.56364e-06
1.80281e-07
2.92254e-09
3.45564e-10
8.10668e-10
3.91725e-07
3.10413e-05
0.000190339
0.000174176
6.73748e-05
5.19119e-06
2.91959e-07
3.66174e-08
9.9257e-10
8.96085e-10
3.51803e-07
2.98671e-05
0.00018347
0.00016655
7.37667e-05
7.60736e-06
6.76758e-07
2.53014e-08
5.43122e-09
9.99842e-10
3.70268e-07
2.85895e-05
0.000178347
0.000159184
8.53811e-05
9.76732e-06
9.20766e-07
1.73588e-07
7.94879e-10
6.57349e-10
3.46562e-07
2.66731e-05
0.000172208
0.000151565
9.32603e-05
1.36703e-05
2.08893e-06
1.21206e-07
4.9009e-08
3.13133e-09
3.04094e-07
2.46539e-05
0.000168175
0.000143869
0.000110332
1.82444e-05
2.30425e-06
5.52836e-07
1.84209e-08
4.08598e-09
2.46296e-07
2.18512e-05
0.000162149
0.000135803
0.000114443
2.53234e-05
4.57619e-06
4.21292e-07
1.67659e-07
9.96744e-09
2.19489e-07
1.90553e-05
0.000158336
0.000126568
0.000122761
3.5402e-05
5.84556e-06
1.55966e-06
1.02117e-07
2.48255e-08
1.51585e-07
1.56545e-05
0.000152064
0.000115832
0.000129284
5.386e-05
1.06887e-05
1.44359e-06
5.31327e-07
1.01822e-07
1.56212e-07
1.21942e-05
0.000144655
0.000103608
0.000143226
7.88334e-05
1.79013e-05
4.56226e-06
5.08283e-07
1.45272e-07
1.55258e-07
8.88164e-06
0.000138244
8.84665e-05
0.000154965
0.000112341
3.27464e-05
7.28467e-06
2.01268e-06
6.88338e-07
2.83363e-07
5.75323e-06
0.00011949
0.0037399
5.06894e-05
4.12302e-05
4.12129e-05
4.12146e-05
4.12146e-05
4.12127e-05
4.12299e-05
5.06556e-05
0.00373085
0.00222987
7.72803e-06
3.13474e-06
3.02744e-06
2.95296e-06
2.95086e-06
3.08607e-06
3.1254e-06
7.72843e-06
0.00219461
0.0014567
2.63185e-05
2.57777e-07
1.96384e-07
1.54613e-07
1.74019e-07
2.12999e-07
2.83155e-07
2.62704e-05
0.00142907
0.00103909
0.000121107
1.11587e-10
5.56736e-12
5.27823e-09
3.90316e-09
1.59632e-09
2.63654e-11
0.000120785
0.00101649
0.000791056
0.00023305
3.59392e-10
4.82085e-18
1.65469e-11
6.35025e-12
3.21607e-14
1.58829e-11
0.000235204
0.000778937
0.000631535
0.000257416
8.6033e-09
6.16966e-19
6.02706e-12
1.555e-10
9.25094e-18
4.4248e-11
0.000268285
0.000627759
0.000523664
0.000239942
3.20068e-08
4.69316e-15
3.70598e-10
1.58005e-09
4.16261e-14
1.67191e-10
0.000239251
0.000524357
0.000447957
0.000124572
8.57439e-07
3.31075e-11
8.67208e-10
2.94978e-12
9.81813e-12
2.03883e-09
0.000162808
0.000450657
0.000392055
9.62466e-05
2.38723e-06
3.39302e-09
6.36475e-11
1.65482e-09
1.154e-11
7.47557e-09
9.62405e-05
0.00039514
0.00034943
6.46941e-05
2.02573e-06
4.41387e-09
2.1885e-11
2.42045e-10
6.05103e-12
1.58192e-08
6.48549e-05
0.000352197
0.000315975
6.58357e-05
2.1753e-06
3.52524e-08
5.97707e-12
1.1195e-09
1.11254e-10
3.08004e-08
5.79995e-05
0.000319707
0.000288572
2.54052e-05
2.41884e-06
1.91168e-07
3.63501e-10
1.76979e-09
9.45559e-11
1.10928e-07
4.51475e-05
0.000292779
0.00026727
3.61286e-05
7.16306e-07
3.45865e-09
3.65437e-13
1.6067e-09
2.91502e-09
3.21918e-07
6.84302e-05
0.000270389
0.00024955
3.82477e-05
5.7879e-07
6.53799e-09
5.17935e-09
6.8146e-10
1.90503e-09
3.19521e-07
2.82954e-05
0.000252597
0.000234483
3.87036e-05
7.7112e-07
6.06494e-09
9.28556e-11
2.22346e-09
1.26761e-09
5.83424e-07
3.67602e-05
0.000238424
0.00022156
4.38451e-05
1.15056e-06
1.07478e-08
1.70918e-10
9.71219e-10
1.0942e-09
5.69218e-07
3.96767e-05
0.00022631
0.000210148
4.77472e-05
1.71996e-06
4.773e-08
7.63216e-10
2.38706e-09
1.14308e-09
8.17822e-07
3.78874e-05
0.000215662
0.000200039
5.19682e-05
2.63641e-06
5.77345e-08
1.01695e-09
2.78815e-09
1.43272e-09
5.61522e-07
3.64949e-05
0.000206546
0.000190853
6.03245e-05
3.46937e-06
1.7887e-07
2.7556e-09
3.7233e-09
6.4488e-10
3.67127e-07
3.57738e-05
0.000198112
0.000182381
6.66784e-05
5.25811e-06
2.13734e-07
1.01447e-08
5.21274e-09
3.45258e-09
3.79052e-07
3.34925e-05
0.000191313
0.000174481
7.62325e-05
7.1697e-06
5.93055e-07
1.12079e-08
8.97211e-09
3.69014e-09
3.57406e-07
3.04306e-05
0.00018443
0.000166831
8.32308e-05
1.06809e-05
9.0452e-07
6.90596e-08
6.56588e-09
2.99521e-09
3.44814e-07
2.84328e-05
0.000179252
0.000159449
9.3458e-05
1.32325e-05
1.71211e-06
6.73585e-08
3.6655e-08
7.83557e-09
2.88556e-07
2.6167e-05
0.000173156
0.00015187
0.000100313
1.99854e-05
2.81282e-06
4.45195e-07
2.74293e-08
3.87346e-09
2.56804e-07
2.33661e-05
0.000169099
0.000144132
0.000115398
2.39118e-05
5.38812e-06
5.65698e-07
2.01031e-07
3.09945e-08
1.94238e-07
2.03397e-05
0.000163077
0.000136077
0.000121101
3.26373e-05
6.76177e-06
1.8754e-06
1.71347e-07
2.94905e-08
1.48176e-07
1.69573e-05
0.000159449
0.000127155
0.000127288
4.07657e-05
1.18286e-05
1.93849e-06
7.52727e-07
1.51696e-07
1.3214e-07
1.37675e-05
0.000152018
0.000116859
0.000132305
5.71872e-05
1.23726e-05
4.09268e-06
5.46029e-07
1.42263e-07
1.9089e-07
1.04034e-05
0.00014826
0.000105369
0.000145212
8.14216e-05
1.93424e-05
4.15623e-06
1.50489e-06
4.8143e-07
2.24656e-07
7.50222e-06
0.000137218
9.19538e-05
0.000157567
0.000113665
3.27623e-05
9.09937e-06
1.76297e-06
5.48963e-07
2.87764e-07
5.02844e-06
0.000121584
0.00374127
5.07245e-05
4.1248e-05
4.12303e-05
4.12321e-05
4.12322e-05
4.12295e-05
4.12476e-05
5.06911e-05
0.00373238
0.00223398
7.74713e-06
3.27182e-06
3.26582e-06
3.20984e-06
3.21084e-06
3.00195e-06
3.06127e-06
7.74768e-06
0.00219883
0.00146236
2.64966e-05
4.32803e-07
4.14115e-07
3.38328e-07
3.44927e-07
2.15993e-07
6.67698e-07
2.6474e-05
0.00143427
0.00104473
0.000119401
9.36863e-08
2.34487e-08
1.88165e-08
1.80412e-08
1.53941e-08
5.72638e-08
0.000119451
0.00102167
0.000796291
0.000235896
9.09232e-07
3.35644e-07
3.26215e-07
3.18131e-07
1.37518e-07
4.09636e-07
0.000236758
0.000784027
0.000635942
0.00027984
2.40579e-06
1.02562e-06
7.76005e-07
7.87174e-07
4.37747e-07
1.65627e-06
0.000265588
0.000632029
0.000526473
0.000194684
2.37527e-06
1.54372e-06
7.57739e-07
1.09441e-06
8.88471e-07
2.29724e-06
0.000261445
0.000527332
0.000450219
0.000261544
1.18616e-06
9.46208e-07
7.54015e-07
9.75356e-07
3.53585e-07
1.79332e-06
0.00012914
0.00045305
0.000394703
0.000194544
8.44216e-07
8.64618e-07
1.71565e-07
9.14945e-07
1.5008e-07
1.25526e-06
0.000144917
0.000397475
0.000351561
0.000121657
8.9347e-07
3.78102e-07
8.62638e-08
3.91444e-07
1.52184e-07
1.04444e-06
9.8738e-05
0.000354675
0.00031762
6.19819e-05
4.41043e-07
8.74689e-07
6.36026e-08
1.11192e-06
3.10921e-07
3.13917e-07
5.41078e-05
0.000320546
0.00029036
6.22872e-05
5.71052e-07
9.51142e-07
1.68844e-07
5.9043e-07
3.73706e-07
2.83678e-07
6.10783e-05
0.000293106
0.000268609
3.49998e-05
1.24997e-07
7.75693e-07
4.88729e-08
7.68623e-07
5.85352e-07
2.85513e-07
3.72243e-05
0.00027108
0.000250662
2.98196e-05
5.47114e-07
9.18031e-07
2.77884e-07
5.12115e-07
6.5417e-07
3.1617e-07
3.49143e-05
0.000253488
0.000235817
4.06443e-05
4.69774e-07
9.28669e-07
2.00455e-07
5.80354e-07
3.63902e-07
4.88055e-07
3.62012e-05
0.000238584
0.000222745
3.992e-05
8.24301e-07
6.5209e-07
1.87576e-07
4.18808e-07
3.28206e-07
4.83115e-07
3.35708e-05
0.000226053
0.000211332
4.12263e-05
1.19997e-06
5.19384e-07
2.05456e-07
5.053e-07
2.55496e-07
7.12171e-07
3.37681e-05
0.000214998
0.000201116
4.62314e-05
1.46469e-06
6.36156e-07
2.38822e-07
5.0519e-07
2.9619e-07
6.7993e-07
3.46083e-05
0.000205723
0.000191853
5.21474e-05
2.02341e-06
7.08291e-07
2.68144e-07
6.47445e-07
3.06293e-07
1.17537e-06
3.47842e-05
0.000197267
0.000183301
6.19681e-05
2.67053e-06
1.09083e-06
3.47022e-07
8.40449e-07
4.65074e-07
8.43751e-07
3.51002e-05
0.00019036
0.000175283
7.03286e-05
3.72939e-06
1.09829e-06
4.76064e-07
8.08038e-07
4.77935e-07
1.35936e-06
3.44816e-05
0.00018353
0.000167613
8.14849e-05
6.28663e-06
1.66923e-06
6.13057e-07
1.3416e-06
6.03063e-07
1.1994e-06
3.37619e-05
0.000178304
0.000160062
9.0736e-05
9.44393e-06
1.8827e-06
8.93402e-07
1.49053e-06
7.22301e-07
1.12254e-06
3.17802e-05
0.000172355
0.00015227
0.00011004
1.46484e-05
3.67339e-06
1.10462e-06
1.3963e-06
9.61187e-07
1.19233e-06
3.01518e-05
0.000168249
0.000144638
0.000125604
2.14497e-05
4.05049e-06
1.66335e-06
2.82289e-06
1.20497e-06
1.37866e-06
2.70355e-05
0.000162467
0.000136379
0.00012839
2.99746e-05
9.47697e-06
2.16148e-06
2.5228e-06
1.83394e-06
1.74636e-06
2.49604e-05
0.000158964
0.000126753
0.000133439
4.47796e-05
8.93065e-06
3.49096e-06
4.53025e-06
2.23276e-06
2.09131e-06
2.08036e-05
0.000152002
0.000115691
0.0001459
7.3333e-05
2.00301e-05
4.59153e-06
3.71032e-06
3.02755e-06
2.76091e-06
1.8884e-05
0.000149548
0.000103973
0.000161871
0.000109077
2.84213e-05
9.95898e-06
6.03218e-06
3.63469e-06
3.43948e-06
1.40795e-05
0.000136406
9.34961e-05
0.000184316
0.000152893
6.57191e-05
1.92144e-05
7.85565e-06
5.20987e-06
4.35315e-06
1.29446e-05
0.000138461
0.00374908
6.17325e-05
5.06935e-05
5.06582e-05
5.06669e-05
5.06668e-05
5.06581e-05
5.06936e-05
6.17001e-05
0.00374063
0.0022349
1.00172e-05
7.75485e-06
7.73304e-06
7.72723e-06
7.72525e-06
7.7324e-06
7.75214e-06
9.86165e-06
0.00220092
0.00145931
2.9135e-05
2.6568e-05
2.63193e-05
2.62182e-05
2.62361e-05
2.63224e-05
2.64453e-05
2.83018e-05
0.00142769
0.00104642
8.95826e-05
0.000121435
0.00012173
0.000121014
0.000119029
0.000119043
0.000119607
8.91741e-05
0.00101411
0.000806987
0.000214452
0.000242196
0.000238989
0.000238034
0.000243414
0.000241677
0.000236617
0.000202588
0.000780849
0.000648622
0.000264025
0.000282439
0.000279381
0.000277744
0.000267256
0.000259462
0.000270678
0.00028112
0.000634417
0.000539035