/*--------------------------------*- C++ -*----------------------------------*\
| =========                 |                                                 |
| \\      /  F ield         | OpenFOAM: The Open Source CFD Toolbox           |
|  \\    /   O peration     | Version:  4.1                                   |
|   \\  /    A nd           | Web:      www.OpenFOAM.org                      |
|    \\/     M anipulation  |                                                 |
\*---------------------------------------------------------------------------*/
FoamFile
{
    version     2.0;
    format      ascii;
    class       volScalarField;
    location    "1900";
    object      p;
}
// * * * * * * * * * * * * * * * * * * * * * * * * * * * * * * * * * * * * * //

dimensions      [0 2 -2 0 0 0 0];

internalField   nonuniform List<scalar> 
12000
(
0.0763392
0.0766179
0.0762821
0.0761616
0.0761239
0.0761223
0.076157
0.0762748
0.0766085
0.0763267
0.0757723
0.0757561
0.075694
0.0756966
0.0756832
0.0756815
0.0756917
0.0756863
0.075746
0.075759
0.0756538
0.0754168
0.0754792
0.0755278
0.0755297
0.0755278
0.0755221
0.0754702
0.0754052
0.0756388
0.0756248
0.0753606
0.0754451
0.0754732
0.0754732
0.0754709
0.0754664
0.0754342
0.0753464
0.0756068
0.0755278
0.0753079
0.075394
0.075397
0.0753943
0.0753914
0.0753885
0.0753805
0.0752902
0.0755055
0.0754045
0.0752293
0.0753121
0.0753019
0.0753012
0.0752976
0.075291
0.0752951
0.0752065
0.0753764
0.0753023
0.0751601
0.0752354
0.0752175
0.0752196
0.075215
0.0752034
0.0752136
0.0751309
0.0752665
0.0752267
0.0751105
0.0751755
0.0751513
0.0751545
0.0751486
0.0751331
0.0751475
0.0750736
0.0751813
0.0751669
0.0750716
0.0751259
0.0750971
0.0750999
0.0750924
0.0750738
0.07509
0.0750245
0.0751092
0.0751162
0.0750362
0.0750818
0.0750498
0.0750512
0.0750416
0.07502
0.0750355
0.0749762
0.0750425
0.0750742
0.0750049
0.0750427
0.0750083
0.0750069
0.0749946
0.0749697
0.0749826
0.0749275
0.0749798
0.0750418
0.0749794
0.0750094
0.0749722
0.0749668
0.0749507
0.074922
0.0749309
0.0748784
0.0749203
0.075019
0.0749608
0.0749822
0.0749411
0.0749305
0.0749095
0.0748759
0.0748797
0.0748283
0.0748618
0.0750058
0.0749491
0.0749611
0.0749149
0.0748971
0.0748698
0.0748303
0.0748274
0.0747756
0.0748014
0.0750028
0.0749449
0.0749465
0.0748933
0.0748661
0.0748305
0.0747836
0.0747721
0.074718
0.0747369
0.0750114
0.07495
0.0749391
0.0748766
0.0748374
0.0747907
0.0747341
0.0747122
0.0746538
0.074666
0.0750337
0.0749664
0.0749402
0.0748649
0.0748104
0.0747496
0.0746802
0.0746453
0.0745804
0.0745855
0.0750716
0.0749964
0.074951
0.074859
0.0747851
0.0747062
0.0746198
0.0745685
0.074494
0.074491
0.0751274
0.0750427
0.074973
0.0748594
0.0747611
0.0746588
0.0745505
0.0744784
0.0743899
0.0743772
0.0752032
0.0751083
0.0750082
0.0748669
0.074738
0.0746059
0.0744688
0.0743697
0.0742616
0.074237
0.0752998
0.0751961
0.0750583
0.0748823
0.0747155
0.0745454
0.0743707
0.074236
0.0741006
0.0740605
0.0754156
0.0753071
0.0751253
0.0749067
0.0746935
0.0744752
0.0742509
0.0740684
0.0738948
0.0738338
0.0755443
0.0754387
0.0752106
0.0749418
0.0746722
0.0743929
0.0741032
0.0738553
0.0736269
0.0735357
0.0756735
0.0755814
0.0753147
0.0749903
0.0746535
0.0742968
0.0739197
0.07358
0.0732702
0.073133
0.0757848
0.0757167
0.0754359
0.0750577
0.0746412
0.0741859
0.0736911
0.0732193
0.0727828
0.0725695
0.0758605
0.0758229
0.0755717
0.0751532
0.0746431
0.0740612
0.0734055
0.0727387
0.072095
0.0717442
0.0758979
0.0758894
0.0757169
0.0752838
0.0746689
0.0739263
0.0730505
0.0720902
0.0710885
0.0704435
0.0759262
0.0759592
0.0758742
0.0754427
0.0747194
0.0737801
0.0726022
0.0711903
0.0695574
0.0681997
0.0759391
0.0760051
0.0759601
0.0755512
0.0747583
0.0736174
0.0720572
0.0699435
0.0672073
0.0635776
0.0759045
0.0759519
0.0758496
0.0754332
0.0746289
0.0733072
0.0712843
0.0680065
0.063641
0.0528581
0.0766194
0.0766525
0.0763225
0.0762042
0.0761642
0.0761626
0.0761997
0.0763155
0.0766433
0.0766064
0.0757575
0.0757073
0.0756724
0.0756793
0.0756641
0.0756625
0.0756745
0.0756649
0.0756975
0.075744
0.0754185
0.0751989
0.075284
0.0753393
0.0753402
0.0753383
0.0753338
0.0752754
0.0751873
0.0754032
0.0753628
0.0751027
0.0752034
0.0752314
0.0752296
0.0752273
0.0752246
0.0751929
0.0750885
0.0753442
0.0753106
0.0750861
0.0751891
0.0751855
0.0751814
0.0751786
0.0751771
0.075176
0.0750683
0.0752878
0.0752327
0.0750478
0.075149
0.0751297
0.0751301
0.0751266
0.075119
0.0751326
0.0750255
0.0752036
0.0751645
0.0750098
0.0751018
0.0750734
0.0750792
0.0750748
0.0750598
0.0750808
0.0749813
0.0751274
0.0751161
0.0749851
0.0750648
0.0750298
0.0750379
0.0750323
0.0750122
0.0750376
0.0749484
0.0750693
0.0750788
0.0749676
0.0750357
0.0749961
0.0750041
0.0749969
0.0749732
0.0750002
0.0749205
0.0750193
0.0750454
0.0749516
0.075009
0.0749665
0.074973
0.0749637
0.0749368
0.0749626
0.0748905
0.0749695
0.0750166
0.0749364
0.0749837
0.0749392
0.0749428
0.0749307
0.0749005
0.074923
0.074857
0.0749192
0.0749944
0.0749237
0.074961
0.0749144
0.0749136
0.0748978
0.074864
0.0748819
0.0748205
0.0748687
0.0749799
0.0749149
0.0749418
0.0748926
0.0748858
0.0748651
0.074827
0.0748389
0.0747803
0.074817
0.0749733
0.0749112
0.0749271
0.0748739
0.0748592
0.0748321
0.0747887
0.0747931
0.0747356
0.0747621
0.0749754
0.0749136
0.0749176
0.0748584
0.0748336
0.0747983
0.0747478
0.0747432
0.0746844
0.0747021
0.0749879
0.0749237
0.0749141
0.0748463
0.0748089
0.0747629
0.074703
0.0746871
0.0746245
0.0746348
0.0750128
0.0749435
0.0749175
0.074838
0.0747849
0.0747249
0.0746526
0.0746229
0.0745538
0.0745566
0.0750521
0.0749751
0.0749294
0.0748341
0.0747612
0.0746832
0.0745944
0.0745476
0.0744686
0.0744631
0.0751077
0.0750212
0.074951
0.0748349
0.0747373
0.0746362
0.0745258
0.0744571
0.074364
0.0743488
0.0751813
0.0750844
0.074984
0.074841
0.0747126
0.0745818
0.0744431
0.0743462
0.0742335
0.0742063
0.0752739
0.0751668
0.0750299
0.0748528
0.0746862
0.0745176
0.0743417
0.0742082
0.074068
0.0740253
0.0753839
0.0752697
0.0750901
0.074871
0.0746576
0.0744406
0.0742156
0.0740333
0.0738544
0.0737905
0.0755071
0.0753913
0.0751656
0.0748964
0.0746263
0.0743478
0.0740574
0.0738085
0.0735736
0.0734793
0.0756339
0.0755261
0.0752569
0.074931
0.0745928
0.074236
0.0738578
0.0735152
0.0731963
0.0730555
0.0757498
0.0756622
0.075364
0.0749786
0.0745597
0.0741032
0.0736055
0.0731271
0.0726763
0.0724575
0.0758385
0.0757825
0.0754859
0.0750459
0.0745326
0.073949
0.073287
0.0726064
0.0719366
0.071575
0.0758913
0.0758697
0.075617
0.0751395
0.0745204
0.0737769
0.0728884
0.0719007
0.0708458
0.0701728
0.0759158
0.0759281
0.0757457
0.0752521
0.0745244
0.073587
0.072388
0.0709268
0.0691814
0.0677435
0.0759066
0.0759394
0.0758077
0.075328
0.0745253
0.0733821
0.0717843
0.0695837
0.066624
0.0627386
0.0758766
0.0758537
0.0756589
0.0751924
0.0743837
0.0730683
0.0710152
0.0675841
0.0629111
0.0513199
0.0762849
0.0763239
0.0760166
0.0758936
0.075852
0.0758505
0.0758891
0.0760097
0.0763149
0.0762716
0.0756967
0.0756737
0.0756447
0.0756465
0.0756313
0.0756297
0.0756418
0.0756372
0.0756638
0.0756831
0.0754823
0.0752856
0.0753707
0.0754244
0.0754258
0.0754239
0.0754189
0.0753621
0.0752741
0.075467
0.0754491
0.0752053
0.0753043
0.0753309
0.0753288
0.0753265
0.0753242
0.0752939
0.0751912
0.0754306
0.0753989
0.0751914
0.0752955
0.0752895
0.0752847
0.0752819
0.075281
0.0752825
0.0751739
0.0753762
0.0753182
0.0751519
0.0752581
0.0752367
0.0752377
0.0752342
0.075226
0.0752417
0.07513
0.0752899
0.0752431
0.0751054
0.0752045
0.0751746
0.0751825
0.0751781
0.075161
0.0751835
0.0750775
0.0752074
0.0751853
0.0750695
0.075157
0.07512
0.075131
0.0751254
0.0751025
0.0751297
0.0750332
0.0751401
0.0751385
0.0750416
0.0751178
0.0750757
0.0750867
0.0750796
0.0750529
0.0750823
0.0749945
0.075081
0.075098
0.0750167
0.0750821
0.075037
0.0750466
0.0750373
0.0750072
0.0750356
0.0749553
0.075024
0.0750635
0.0749937
0.075048
0.0750012
0.0750081
0.074996
0.0749624
0.0749876
0.0749139
0.0749678
0.0750362
0.074974
0.0750171
0.0749686
0.074971
0.0749553
0.0749181
0.0749386
0.0748704
0.0749121
0.0750168
0.0749587
0.0749906
0.0749396
0.0749359
0.0749154
0.0748742
0.0748883
0.0748241
0.0748559
0.0750057
0.074949
0.0749693
0.0749146
0.0749028
0.074876
0.0748296
0.074836
0.0747738
0.0747972
0.0750036
0.0749461
0.0749537
0.0748932
0.0748714
0.0748364
0.0747832
0.0747802
0.074718
0.0747334
0.0750122
0.074951
0.0749443
0.0748757
0.0748412
0.0747956
0.0747334
0.0747191
0.0746542
0.074662
0.0750331
0.0749654
0.0749421
0.0748622
0.074812
0.0747527
0.0746783
0.07465
0.0745797
0.0745797
0.0750679
0.0749914
0.0749483
0.074853
0.0747831
0.074706
0.0746157
0.0745701
0.0744907
0.0744823
0.0751185
0.0750312
0.074964
0.0748483
0.0747538
0.0746538
0.0745424
0.074475
0.0743822
0.074364
0.0751862
0.075087
0.0749903
0.0748481
0.0747232
0.0745938
0.0744546
0.0743595
0.0742474
0.0742172
0.0752715
0.0751605
0.0750281
0.0748526
0.0746899
0.0745231
0.0743472
0.0742161
0.0740768
0.074031
0.0753727
0.0752525
0.0750782
0.0748615
0.0746526
0.0744382
0.0742138
0.0740346
0.0738565
0.0737894
0.0754853
0.0753615
0.075141
0.074875
0.0746102
0.0743351
0.0740461
0.073801
0.0735666
0.0734686
0.0756015
0.0754824
0.0752161
0.0748936
0.0745619
0.0742099
0.0738336
0.0734955
0.0731763
0.0730307
0.0757104
0.0756064
0.0753027
0.0749192
0.0745088
0.0740592
0.0735641
0.0730905
0.0726371
0.0724112
0.0758005
0.0757208
0.0753992
0.0749561
0.074455
0.0738823
0.0732239
0.0725469
0.0718689
0.0714953
0.0758637
0.0758133
0.075503
0.0750113
0.0744106
0.0736855
0.0728029
0.071815
0.0707381
0.0700409
0.0758999
0.0758771
0.0756064
0.0750897
0.0743918
0.073486
0.072297
0.0708278
0.0690261
0.0675319
0.0759151
0.0759094
0.0756909
0.0751975
0.0744414
0.0733483
0.0717688
0.0695522
0.0664685
0.0624292
0.0759209
0.0759001
0.075721
0.0753267
0.0746096
0.073361
0.0713329
0.0678768
0.0629975
0.0509767
0.0761658
0.076207
0.075895
0.075771
0.0757291
0.0757276
0.0757667
0.0758882
0.0761981
0.0761525
0.0757008
0.0756821
0.075648
0.0756502
0.075635
0.0756333
0.0756455
0.0756406
0.0756723
0.0756872
0.0755326
0.0753424
0.075426
0.075482
0.0754835
0.0754816
0.0754765
0.0754175
0.0753311
0.0755173
0.0754792
0.0752351
0.0753328
0.0753613
0.0753589
0.0753566
0.0753547
0.0753225
0.0752213
0.0754608
0.0754044
0.0751902
0.0752917
0.0752858
0.0752802
0.0752774
0.0752774
0.0752789
0.0751728
0.0753819
0.075311
0.0751356
0.0752396
0.075217
0.0752174
0.0752139
0.0752064
0.0752232
0.0751135
0.0752829
0.075229
0.075081
0.0751784
0.075147
0.0751547
0.0751503
0.0751334
0.0751574
0.0750529
0.0751934
0.0751661
0.0750396
0.075125
0.0750859
0.0750969
0.0750913
0.0750683
0.0750978
0.0750033
0.0751205
0.0751162
0.0750088
0.0750823
0.0750375
0.0750486
0.0750415
0.0750146
0.0750468
0.0749618
0.0750577
0.0750746
0.0749832
0.0750456
0.0749979
0.0750075
0.0749982
0.074968
0.0749995
0.0749223
0.0749992
0.0750407
0.0749609
0.0750125
0.0749632
0.07497
0.074958
0.0749244
0.0749524
0.0748818
0.0749431
0.0750146
0.0749427
0.0749832
0.0749326
0.0749348
0.0749193
0.0748821
0.0749052
0.0748398
0.0748883
0.0749967
0.0749295
0.0749587
0.0749061
0.0749021
0.0748818
0.0748407
0.0748573
0.0747955
0.0748331
0.074987
0.0749221
0.0749396
0.0748837
0.0748716
0.0748451
0.0747989
0.0748076
0.0747473
0.0747756
0.0749863
0.0749212
0.0749261
0.074865
0.0748427
0.0748082
0.0747552
0.0747542
0.0746932
0.074713
0.0749961
0.074928
0.0749186
0.07485
0.074815
0.0747699
0.074708
0.0746953
0.0746312
0.0746425
0.0750178
0.0749439
0.0749179
0.0748385
0.0747878
0.074729
0.0746551
0.0746283
0.0745582
0.0745608
0.0750526
0.074971
0.0749252
0.0748309
0.0747604
0.0746839
0.0745942
0.0745499
0.0744705
0.0744637
0.0751025
0.0750111
0.0749412
0.0748269
0.0747319
0.0746326
0.074522
0.0744559
0.0743628
0.0743453
0.0751686
0.0750662
0.0749667
0.0748264
0.0747011
0.0745727
0.0744345
0.0743406
0.074228
0.0741978
0.0752512
0.0751377
0.0750024
0.0748292
0.0746666
0.0745011
0.0743264
0.0741965
0.0740563
0.0740097
0.0753486
0.0752263
0.0750489
0.0748348
0.0746267
0.0744138
0.0741908
0.0740129
0.0738336
0.073765
0.075457
0.0753305
0.0751064
0.074843
0.0745797
0.0743066
0.0740192
0.0737754
0.0735393
0.073439
0.0755698
0.0754466
0.0751747
0.074854
0.0745248
0.0741755
0.0738011
0.0734642
0.0731424
0.0729933
0.0756781
0.0755672
0.075254
0.0748704
0.0744637
0.0740179
0.0735252
0.0730521
0.0725944
0.0723632
0.0757731
0.0756827
0.0753442
0.0748979
0.0744024
0.0738357
0.0731805
0.0725028
0.071817
0.0714345
0.0758481
0.0757833
0.075446
0.0749489
0.0743582
0.0736434
0.0727654
0.0717751
0.0706836
0.0699704
0.0759017
0.0758627
0.0755598
0.0750425
0.0743638
0.0734753
0.0722937
0.0708202
0.0689934
0.0674697
0.0759388
0.0759195
0.0756876
0.0752168
0.074496
0.0734285
0.0718609
0.0696423
0.0665278
0.0624547
0.0759622
0.0759479
0.0758259
0.075509
0.0748445
0.0736205
0.0716046
0.0681556
0.063263
0.0512915
0.0761297
0.0761685
0.075855
0.0757307
0.0756887
0.0756872
0.0757263
0.0758482
0.0761596
0.0761164
0.075689
0.0756685
0.0756344
0.0756366
0.0756213
0.0756197
0.0756319
0.075627
0.0756588
0.0756754
0.0755365
0.0753452
0.0754292
0.0754853
0.0754867
0.0754848
0.0754799
0.0754207
0.0753339
0.0755212
0.0754815
0.0752356
0.0753329
0.0753611
0.0753583
0.0753561
0.0753545
0.0753226
0.0752218
0.0754632
0.0754045
0.0751889
0.0752898
0.0752831
0.075277
0.0752742
0.0752747
0.0752769
0.0751715
0.0753821
0.0753141
0.0751396
0.0752443
0.0752211
0.0752211
0.0752176
0.0752104
0.0752279
0.0751176
0.075286
0.075236
0.0750915
0.075191
0.0751594
0.0751671
0.0751627
0.0751458
0.07517
0.0750633
0.0752003
0.0751755
0.0750538
0.0751421
0.0751031
0.0751145
0.0751089
0.0750854
0.0751149
0.0750176
0.0751298
0.0751272
0.0750248
0.0751012
0.0750567
0.0750685
0.0750614
0.0750338
0.075066
0.0749781
0.0750681
0.0750866
0.0749999
0.0750655
0.0750179
0.0750285
0.0750194
0.0749882
0.0750198
0.0749395
0.0750102
0.075053
0.0749779
0.0750328
0.0749836
0.0749915
0.0749796
0.074945
0.0749731
0.0748993
0.0749548
0.0750267
0.0749594
0.0750032
0.0749525
0.074956
0.0749406
0.0749023
0.0749253
0.0748568
0.0749009
0.0750082
0.0749454
0.0749779
0.0749249
0.0749223
0.0749021
0.0748598
0.0748763
0.0748114
0.0748463
0.0749978
0.0749368
0.0749574
0.0749011
0.0748904
0.0748641
0.0748166
0.0748252
0.074762
0.0747884
0.0749963
0.0749344
0.0749423
0.0748809
0.07486
0.0748256
0.0747715
0.0747704
0.0747068
0.0747251
0.075005
0.0749395
0.074933
0.0748641
0.0748306
0.0747856
0.0747226
0.07471
0.0746435
0.0746537
0.0750254
0.0749537
0.0749305
0.0748508
0.0748014
0.0747429
0.074668
0.0746413
0.0745692
0.0745709
0.0750586
0.0749788
0.0749358
0.0748411
0.074772
0.0746958
0.0746053
0.0745613
0.0744802
0.0744727
0.0751065
0.0750166
0.0749495
0.0748348
0.0747412
0.0746424
0.0745312
0.0744656
0.0743711
0.074353
0.0751704
0.075069
0.0749722
0.0748318
0.0747079
0.0745801
0.0744415
0.0743484
0.0742347
0.074204
0.0752505
0.0751374
0.0750047
0.0748315
0.0746705
0.0745057
0.0743308
0.0742019
0.074061
0.0740142
0.0753452
0.0752226
0.0750475
0.0748337
0.0746272
0.0744153
0.0741923
0.0740154
0.0738359
0.0737671
0.0754511
0.0753234
0.0751007
0.0748378
0.0745762
0.0743044
0.0740172
0.0737747
0.0735385
0.0734382
0.0755622
0.0754368
0.0751648
0.0748444
0.074517
0.0741693
0.0737953
0.0734596
0.0731379
0.072989
0.0756707
0.0755566
0.0752403
0.0748563
0.0744515
0.0740079
0.0735159
0.073044
0.0725862
0.0723549
0.0757686
0.0756741
0.0753283
0.0748803
0.0743875
0.0738239
0.0731698
0.0724931
0.0718065
0.0714232
0.0758491
0.0757799
0.0754313
0.0749316
0.0743455
0.0736358
0.0727599
0.0717701
0.0706765
0.0699611
0.0759091
0.0758664
0.0755524
0.0750348
0.0743647
0.0734847
0.0723071
0.0708344
0.0690037
0.067476
0.0759506
0.0759288
0.0756962
0.0752366
0.0745324
0.0734792
0.0719205
0.0697052
0.0665886
0.0625033
0.0759761
0.0759626
0.075867
0.0755861
0.0749511
0.0737492
0.07175
0.0683117
0.0634219
0.0514137
0.0761298
0.0761686
0.075855
0.0757308
0.0756888
0.0756873
0.0757264
0.0758483
0.0761597
0.0761165
0.075689
0.0756686
0.0756345
0.0756367
0.0756214
0.0756197
0.075632
0.0756271
0.0756589
0.0756755
0.0755365
0.0753452
0.0754293
0.0754854
0.0754868
0.0754849
0.0754799
0.0754208
0.0753339
0.0755213
0.0754815
0.0752357
0.0753329
0.0753611
0.0753584
0.0753561
0.0753545
0.0753226
0.0752218
0.0754633
0.0754046
0.0751889
0.0752898
0.0752831
0.075277
0.0752742
0.0752747
0.075277
0.0751716
0.0753822
0.0753142
0.0751397
0.0752443
0.0752211
0.0752211
0.0752176
0.0752104
0.0752279
0.0751176
0.0752862
0.0752361
0.0750916
0.075191
0.0751594
0.0751671
0.0751627
0.0751458
0.07517
0.0750633
0.0752004
0.0751756
0.0750539
0.0751421
0.0751031
0.0751145
0.0751089
0.0750854
0.075115
0.0750176
0.0751298
0.0751273
0.0750249
0.0751012
0.0750567
0.0750685
0.0750614
0.0750338
0.075066
0.074978
0.0750683
0.0750868
0.075
0.0750655
0.0750179
0.0750285
0.0750193
0.0749882
0.0750196
0.0749393
0.0750109
0.0750531
0.074978
0.0750328
0.0749836
0.0749915
0.0749796
0.0749449
0.074973
0.0748992
0.0749553
0.0750267
0.0749595
0.0750034
0.0749525
0.074956
0.0749406
0.0749022
0.0749255
0.0748568
0.0749009
0.0750083
0.0749456
0.074978
0.074925
0.0749223
0.0749022
0.0748597
0.0748767
0.0748115
0.0748459
0.0749979
0.0749369
0.0749575
0.0749012
0.0748905
0.0748642
0.0748166
0.0748256
0.0747621
0.074788
0.0749964
0.0749346
0.0749424
0.0748809
0.0748601
0.0748258
0.0747715
0.0747708
0.0747069
0.0747247
0.075005
0.0749398
0.0749333
0.0748642
0.0748307
0.0747858
0.0747227
0.0747103
0.0746437
0.0746533
0.0750251
0.0749541
0.0749309
0.074851
0.0748016
0.0747431
0.0746682
0.0746417
0.0745696
0.0745708
0.0750585
0.0749791
0.0749361
0.0748413
0.0747722
0.0746961
0.0746055
0.0745617
0.0744805
0.0744726
0.0751067
0.075017
0.0749497
0.0748351
0.0747415
0.0746428
0.0745315
0.074466
0.0743715
0.0743531
0.0751707
0.0750694
0.0749725
0.0748321
0.0747083
0.0745806
0.0744419
0.0743488
0.0742352
0.0742042
0.0752508
0.0751378
0.075005
0.0748319
0.0746709
0.0745062
0.0743313
0.0742024
0.0740616
0.0740146
0.0753456
0.0752229
0.0750477
0.0748341
0.0746277
0.0744158
0.0741929
0.0740161
0.0738365
0.0737678
0.0754515
0.0753238
0.075101
0.0748382
0.0745768
0.0743051
0.074018
0.0737754
0.0735393
0.0734391
0.0755626
0.0754372
0.0751651
0.0748449
0.0745177
0.0741701
0.0737964
0.0734606
0.0731389
0.0729901
0.0756712
0.0755569
0.0752405
0.0748568
0.0744523
0.0740089
0.0735172
0.0730453
0.0725875
0.0723564
0.0757689
0.0756743
0.0753285
0.0748809
0.0743884
0.0738251
0.0731714
0.0724948
0.0718082
0.0714251
0.0758492
0.0757799
0.0754315
0.0749322
0.0743465
0.0736371
0.0727617
0.0717722
0.0706787
0.0699635
0.0759091
0.0758663
0.0755524
0.0750351
0.0743656
0.073486
0.0723091
0.0708368
0.0690064
0.0674787
0.0759507
0.0759286
0.075696
0.0752366
0.074533
0.0734804
0.0719225
0.0697079
0.0665915
0.0625056
0.0759763
0.0759625
0.0758666
0.0755859
0.0749514
0.0737503
0.071752
0.0683145
0.0634248
0.0514139
0.076166
0.0762072
0.0758953
0.0757713
0.0757294
0.0757279
0.075767
0.0758885
0.0761984
0.0761528
0.0757009
0.0756823
0.0756482
0.0756504
0.0756352
0.0756336
0.0756458
0.0756409
0.0756726
0.0756875
0.0755327
0.0753426
0.0754261
0.0754821
0.0754836
0.0754818
0.0754767
0.0754177
0.0753313
0.0755176
0.0754793
0.0752352
0.0753329
0.0753614
0.075359
0.0753567
0.0753548
0.0753226
0.0752214
0.0754612
0.0754045
0.0751903
0.0752918
0.0752859
0.0752803
0.0752775
0.0752775
0.0752789
0.0751729
0.0753822
0.0753112
0.0751356
0.0752397
0.0752171
0.0752175
0.075214
0.0752065
0.0752233
0.0751136
0.0752831
0.0752293
0.0750811
0.0751785
0.075147
0.0751547
0.0751503
0.0751334
0.0751575
0.0750529
0.0751934
0.0751664
0.0750396
0.075125
0.0750859
0.0750969
0.0750913
0.0750683
0.0750979
0.0750034
0.0751205
0.0751169
0.0750087
0.0750821
0.0750374
0.0750486
0.0750415
0.0750146
0.0750468
0.0749618
0.0750578
0.0750757
0.074983
0.0750455
0.0749978
0.0750075
0.0749982
0.074968
0.0749995
0.0749222
0.0749995
0.0750415
0.0749608
0.0750125
0.0749632
0.07497
0.0749581
0.0749244
0.0749526
0.0748818
0.0749431
0.0750149
0.0749427
0.0749836
0.0749326
0.0749349
0.0749194
0.0748822
0.0749054
0.0748399
0.0748881
0.0749966
0.0749296
0.0749592
0.0749062
0.0749023
0.074882
0.0748408
0.0748575
0.0747956
0.0748328
0.0749869
0.0749222
0.0749401
0.0748838
0.0748718
0.0748453
0.074799
0.0748078
0.0747473
0.0747753
0.0749862
0.0749213
0.0749266
0.0748651
0.074843
0.0748084
0.0747554
0.0747544
0.0746933
0.0747129
0.0749958
0.0749282
0.0749192
0.0748502
0.0748154
0.0747703
0.0747083
0.0746955
0.0746314
0.0746427
0.0750171
0.0749445
0.0749189
0.074839
0.0747883
0.0747295
0.0746556
0.0746286
0.0745586
0.0745613
0.0750523
0.0749717
0.0749262
0.0748315
0.0747611
0.0746846
0.0745949
0.0745505
0.0744711
0.0744644
0.0751026
0.075012
0.0749423
0.0748278
0.0747329
0.0746336
0.074523
0.0744568
0.0743637
0.0743463
0.075169
0.0750672
0.074968
0.0748276
0.0747024
0.074574
0.0744357
0.0743419
0.0742293
0.074199
0.0752518
0.0751389
0.0750039
0.0748306
0.0746682
0.0745026
0.0743279
0.074198
0.074058
0.0740115
0.0753494
0.0752275
0.0750506
0.0748365
0.0746286
0.0744157
0.0741928
0.0740149
0.0738358
0.0737673
0.0754578
0.0753319
0.0751082
0.074845
0.074582
0.0743091
0.0740218
0.073778
0.0735421
0.073442
0.0755706
0.0754479
0.0751767
0.0748565
0.0745276
0.0741786
0.0738044
0.0734676
0.073146
0.0729973
0.0756788
0.0755683
0.075256
0.0748731
0.074467
0.0740218
0.0735294
0.0730565
0.0725992
0.0723684
0.0757735
0.0756834
0.0753459
0.0749008
0.0744062
0.0738403
0.0731857
0.0725086
0.0718232
0.0714411
0.0758481
0.0757834
0.0754473
0.0749517
0.0743622
0.0736486
0.0727716
0.0717822
0.0706915
0.0699788
0.0759015
0.0758622
0.0755602
0.0750445
0.0743675
0.0734806
0.0723006
0.0708287
0.0690032
0.06748
0.0759384
0.0759185
0.0756865
0.0752171
0.0744984
0.0734332
0.071868
0.0696515
0.0665392
0.0624651
0.0759617
0.0759463
0.075823
0.0755071
0.0748452
0.0736244
0.0716117
0.0681655
0.0632752
0.0513011
0.0762852
0.0763244
0.0760172
0.0758943
0.0758527
0.0758512
0.0758899
0.0760105
0.0763157
0.0762723
0.0756969
0.0756741
0.0756451
0.0756469
0.0756317
0.0756301
0.0756423
0.0756377
0.0756644
0.0756836
0.0754824
0.0752858
0.0753709
0.0754246
0.075426
0.0754242
0.0754192
0.0753625
0.0752745
0.0754674
0.075449
0.0752054
0.0753045
0.0753311
0.0753289
0.0753266
0.0753244
0.0752941
0.0751915
0.075431
0.0753989
0.0751915
0.0752956
0.0752895
0.0752848
0.0752819
0.0752811
0.0752826
0.0751741
0.0753767
0.0753183
0.0751523
0.0752583
0.0752367
0.0752378
0.0752342
0.0752261
0.0752417
0.0751299
0.0752904
0.0752435
0.0751056
0.0752045
0.0751747
0.0751826
0.0751782
0.0751611
0.0751835
0.0750774
0.0752078
0.0751859
0.0750693
0.0751568
0.07512
0.075131
0.0751254
0.0751024
0.0751299
0.0750335
0.0751402
0.0751392
0.0750416
0.0751177
0.0750756
0.0750867
0.0750795
0.0750527
0.0750823
0.0749946
0.0750812
0.0750986
0.0750168
0.075082
0.0750369
0.0750466
0.0750374
0.0750071
0.0750357
0.0749555
0.0750241
0.0750639
0.0749939
0.0750482
0.0750013
0.0750082
0.0749961
0.0749624
0.0749879
0.0749141
0.0749677
0.0750363
0.0749744
0.0750177
0.0749689
0.0749713
0.0749556
0.0749183
0.0749388
0.0748706
0.0749119
0.0750168
0.0749593
0.0749913
0.07494
0.0749363
0.0749159
0.0748744
0.0748886
0.0748244
0.0748557
0.0750059
0.0749497
0.0749698
0.0749149
0.0749031
0.0748765
0.07483
0.0748362
0.0747742
0.074797
0.0750041
0.0749467
0.074954
0.0748936
0.0748717
0.074837
0.0747837
0.0747805
0.0747183
0.0747334
0.0750128
0.0749514
0.0749447
0.0748762
0.0748417
0.0747963
0.0747342
0.0747195
0.0746547
0.0746623
0.0750338
0.0749659
0.0749427
0.0748629
0.0748126
0.0747535
0.0746795
0.0746508
0.0745804
0.0745802
0.0750687
0.0749922
0.0749492
0.074854
0.0747841
0.074707
0.0746172
0.0745713
0.0744918
0.074483
0.0751195
0.0750322
0.0749653
0.0748496
0.0747552
0.0746552
0.0745444
0.0744768
0.0743839
0.0743652
0.0751875
0.0750884
0.0749921
0.07485
0.074725
0.0745957
0.0744571
0.0743619
0.0742498
0.074219
0.0752729
0.0751624
0.0750304
0.074855
0.0746923
0.0745256
0.0743503
0.0742192
0.07408
0.0740336
0.0753743
0.0752548
0.0750811
0.0748646
0.0746558
0.0744415
0.0742177
0.0740386
0.0738607
0.0737931
0.0754871
0.0753641
0.0751444
0.0748788
0.0746142
0.0743394
0.0740509
0.073806
0.0735719
0.0734736
0.0756033
0.0754852
0.0752199
0.0748981
0.0745669
0.0742153
0.0738397
0.0735019
0.073183
0.0730374
0.0757122
0.075609
0.0753068
0.0749245
0.074515
0.0740661
0.0735719
0.0730986
0.0726457
0.07242
0.0758021
0.0757232
0.0754034
0.0749622
0.0744624
0.0738907
0.0732336
0.0725573
0.07188
0.0715069
0.0758651
0.0758151
0.0755069
0.0750178
0.0744188
0.0736954
0.0728147
0.0718282
0.0707525
0.070056
0.0759008
0.0758781
0.0756092
0.0750952
0.0743996
0.0734964
0.0723103
0.0708438
0.0690446
0.0675514
0.0759144
0.0759083
0.0756906
0.0751994
0.0744465
0.073357
0.0717822
0.06957
0.0664909
0.062452
0.0759185
0.0758957
0.0757145
0.075321
0.074608
0.0733651
0.0713443
0.0678948
0.0630232
0.0510049
0.0766199
0.0766534
0.0763237
0.0762054
0.0761654
0.0761639
0.0762011
0.076317
0.0766448
0.0766075
0.0757578
0.0757079
0.075673
0.0756799
0.0756648
0.0756632
0.0756753
0.0756657
0.0756984
0.0757446
0.0754188
0.0751992
0.0752844
0.0753397
0.0753406
0.0753388
0.0753343
0.0752759
0.075188
0.0754037
0.075363
0.0751029
0.0752036
0.0752316
0.0752299
0.0752276
0.075225
0.0751933
0.0750891
0.0753449
0.0753109
0.0750861
0.0751892
0.0751857
0.0751815
0.0751787
0.0751773
0.0751763
0.0750688
0.0752884
0.0752325
0.0750482
0.0751493
0.0751297
0.0751302
0.0751267
0.0751191
0.0751325
0.0750256
0.0752049
0.0751648
0.0750099
0.0751018
0.0750735
0.0750793
0.0750749
0.0750599
0.0750807
0.0749814
0.0751289
0.0751176
0.0749849
0.0750645
0.0750298
0.075038
0.0750323
0.0750122
0.0750378
0.0749486
0.0750702
0.0750802
0.0749676
0.0750354
0.074996
0.0750042
0.0749969
0.0749732
0.0750003
0.0749204
0.07502
0.0750464
0.0749515
0.075009
0.0749665
0.0749731
0.0749637
0.0749367
0.0749627
0.0748903
0.07497
0.0750171
0.0749363
0.0749839
0.0749391
0.0749428
0.0749307
0.0749003
0.0749231
0.0748567
0.0749193
0.0749945
0.0749238
0.0749614
0.0749144
0.0749137
0.0748979
0.0748638
0.074882
0.07482
0.0748685
0.0749796
0.0749153
0.0749426
0.0748928
0.074886
0.0748653
0.0748268
0.074839
0.07478
0.0748166
0.0749729
0.0749119
0.074928
0.0748742
0.0748595
0.0748325
0.0747885
0.0747933
0.0747353
0.0747617
0.0749752
0.0749145
0.0749185
0.0748588
0.074834
0.0747989
0.0747478
0.0747433
0.0746842
0.0747019
0.0749882
0.0749248
0.074915
0.0748469
0.0748095
0.0747637
0.0747032
0.0746875
0.0746245
0.0746347
0.0750134
0.0749446
0.0749186
0.0748389
0.0747857
0.074726
0.0746532
0.0746236
0.074554
0.0745566
0.0750529
0.0749764
0.0749306
0.0748353
0.0747623
0.0746846
0.0745956
0.0745488
0.0744693
0.0744633
0.0751087
0.0750228
0.0749527
0.0748366
0.0747389
0.074638
0.0745276
0.074459
0.0743655
0.0743495
0.0751827
0.0750863
0.0749863
0.0748434
0.0747148
0.0745843
0.0744456
0.074349
0.074236
0.0742079
0.0752757
0.0751692
0.0750329
0.074856
0.0746892
0.0745209
0.0743452
0.074212
0.0740716
0.074028
0.0753863
0.0752726
0.0750938
0.0748751
0.0746615
0.0744449
0.0742203
0.0740384
0.0738594
0.0737947
0.0755099
0.0753948
0.07517
0.0749016
0.0746314
0.0743534
0.0740637
0.0738152
0.0735803
0.0734853
0.0756371
0.07553
0.0752622
0.0749374
0.0745995
0.0742434
0.073866
0.073524
0.0732053
0.0730638
0.0757529
0.0756664
0.07537
0.0749865
0.0745685
0.0741128
0.0736163
0.0731388
0.0726884
0.0724689
0.0758413
0.0757866
0.0754929
0.0750558
0.0745439
0.0739614
0.0733011
0.0726221
0.0719529
0.0715908
0.0758939
0.0758736
0.0756249
0.0751512
0.0745342
0.0737925
0.0729066
0.0719215
0.0708683
0.0701949
0.0759183
0.0759324
0.0757542
0.0752646
0.0745399
0.0736055
0.0724106
0.0709542
0.0692125
0.0677752
0.0759071
0.0759408
0.0758119
0.075336
0.0745385
0.0734007
0.0718098
0.0696178
0.0666672
0.0627813
0.0758743
0.0758499
0.0756528
0.0751873
0.0743841
0.0730768
0.0710358
0.0676199
0.0629667
0.051375
0.076339
0.0766177
0.0762817
0.0761612
0.0761236
0.076122
0.0761568
0.0762748
0.0766088
0.0763263
0.0757719
0.0757557
0.0756935
0.0756961
0.0756827
0.0756811
0.0756914
0.0756861
0.0757459
0.0757587
0.0756537
0.0754167
0.075479
0.0755277
0.0755296
0.0755277
0.0755221
0.0754703
0.0754053
0.0756388
0.0756248
0.0753607
0.0754453
0.0754735
0.0754735
0.0754712
0.0754667
0.0754346
0.0753468
0.0756072
0.075528
0.0753082
0.0753943
0.0753974
0.0753948
0.075392
0.075389
0.0753812
0.0752909
0.0755065
0.0754047
0.0752293
0.0753126
0.0753024
0.0753018
0.0752983
0.0752917
0.075296
0.0752081
0.075378
0.0753028
0.0751606
0.0752362
0.075218
0.0752202
0.0752157
0.0752042
0.0752146
0.0751328
0.0752684
0.0752279
0.0751122
0.0751765
0.0751519
0.0751552
0.0751495
0.0751342
0.0751485
0.0750749
0.075183
0.0751682
0.0750732
0.075127
0.075098
0.0751008
0.0750934
0.075075
0.075091
0.0750258
0.0751107
0.0751173
0.0750374
0.0750826
0.0750507
0.075052
0.0750424
0.075021
0.0750363
0.0749772
0.0750437
0.075075
0.0750056
0.0750432
0.0750089
0.0750075
0.0749952
0.0749705
0.0749831
0.0749281
0.0749805
0.0750423
0.0749797
0.0750096
0.0749725
0.0749671
0.0749512
0.0749226
0.0749313
0.0748787
0.0749207
0.0750193
0.0749608
0.0749824
0.0749415
0.0749306
0.0749097
0.0748765
0.0748799
0.0748285
0.074862
0.0750061
0.0749491
0.0749617
0.0749156
0.0748976
0.07487
0.0748308
0.0748277
0.0747757
0.0748018
0.0750034
0.0749453
0.0749474
0.0748942
0.074867
0.0748309
0.074784
0.0747725
0.0747183
0.0747374
0.0750123
0.0749508
0.0749402
0.0748776
0.0748385
0.0747915
0.0747347
0.0747127
0.0746542
0.0746665
0.0750348
0.0749676
0.0749414
0.0748661
0.0748119
0.0747508
0.074681
0.074646
0.0745809
0.074586
0.0750729
0.0749979
0.0749525
0.0748606
0.0747869
0.0747078
0.0746211
0.0745698
0.0744949
0.0744918
0.0751291
0.0750447
0.074975
0.0748615
0.0747634
0.074661
0.0745524
0.0744803
0.0743913
0.0743786
0.0752054
0.0751109
0.0750106
0.0748695
0.0747409
0.0746088
0.0744715
0.0743726
0.074264
0.0742394
0.0753027
0.0751995
0.0750616
0.0748858
0.0747193
0.0745493
0.0743744
0.0742401
0.0741043
0.0740644
0.0754191
0.0753114
0.0751296
0.0749112
0.0746983
0.0744803
0.0742559
0.0740741
0.0739003
0.0738395
0.0755481
0.0754437
0.075216
0.0749475
0.0746785
0.0743996
0.0741099
0.073863
0.0736346
0.0735436
0.0756771
0.0755866
0.0753213
0.0749976
0.0746615
0.0743055
0.0739287
0.0735902
0.0732808
0.0731438
0.0757877
0.0757215
0.0754436
0.0750669
0.0746515
0.0741973
0.073703
0.0732327
0.0727971
0.0725842