/*--------------------------------*- C++ -*----------------------------------*\
| =========                 |                                                 |
| \\      /  F ield         | OpenFOAM: The Open Source CFD Toolbox           |
|  \\    /   O peration     | Version:  4.1                                   |
|   \\  /    A nd           | Web:      www.OpenFOAM.org                      |
|    \\/     M anipulation  |                                                 |
\*---------------------------------------------------------------------------*/
FoamFile
{
    version     2.0;
    format      ascii;
    class       surfaceScalarField;
    location    "1900";
    object      phi;
}
// * * * * * * * * * * * * * * * * * * * * * * * * * * * * * * * * * * * * * //

dimensions      [0 3 -1 0 0 0 0];

internalField   nonuniform List<scalar> 
33700
(
4.93809e-05
0.000901315
4.93021e-05
2.30379e-05
0.000971654
5.4686e-05
8.384e-06
0.000957807
5.68443e-05
3.12927e-06
0.000948607
5.66452e-05
9.09305e-08
0.000946154
5.68814e-05
-2.95368e-06
0.000946162
5.68792e-05
-8.22463e-06
0.00094863
5.6638e-05
-2.2899e-05
0.00095784
5.68323e-05
-4.92322e-05
0.000971664
5.46672e-05
0.000901447
4.93195e-05
3.15745e-05
0.000838332
3.1402e-05
2.38543e-05
0.000939741
3.96274e-05
1.34504e-05
0.000926526
4.1678e-05
6.14719e-06
0.00091486
4.10433e-05
2.34334e-07
0.000910631
4.14292e-05
-5.69609e-06
0.000910662
4.14243e-05
-1.30492e-05
0.000914948
4.10287e-05
-2.35205e-05
0.00092665
4.16558e-05
-3.12923e-05
0.000939854
3.95776e-05
0.000838699
3.14544e-05
1.63137e-05
0.000805974
1.60378e-05
1.68417e-05
0.000915746
2.34598e-05
1.17713e-05
0.0009069
2.46892e-05
6.0829e-06
0.000896342
2.41994e-05
3.98838e-07
0.000891618
2.46893e-05
-5.31398e-06
0.000891684
2.46831e-05
-1.10839e-05
0.000896532
2.41792e-05
-1.62642e-05
0.000907166
2.46584e-05
-1.58247e-05
0.000916015
2.33957e-05
0.00080677
1.61027e-05
8.97363e-06
0.000788426
8.56725e-06
1.198e-05
0.000898608
1.41243e-05
9.60691e-06
0.000895061
1.42054e-05
5.27141e-06
0.000886161
1.45094e-05
6.05059e-07
0.000881145
1.51327e-05
-4.10267e-06
0.00088126
1.51253e-05
-8.55427e-06
0.000886495
1.44825e-05
-1.10879e-05
0.000895535
1.41603e-05
-8.23795e-06
0.000899094
1.40677e-05
0.000789896
8.63558e-06
5.62869e-06
0.000777737
5.05448e-06
9.19668e-06
0.000885879
9.15627e-06
8.33715e-06
0.000888134
7.78038e-06
4.80179e-06
0.000880641
9.04995e-06
8.67624e-07
0.000875321
9.75333e-06
-3.11994e-06
0.000875499
9.74359e-06
-6.82105e-06
0.00088117
9.02174e-06
-7.93293e-06
0.000888907
7.73537e-06
-4.57969e-06
0.000886624
9.11353e-06
0.000780205
5.11026e-06
4.43207e-06
0.00076966
3.64174e-06
7.31118e-06
0.000875984
7.01262e-06
7.44637e-06
0.000883852
4.14507e-06
4.55516e-06
0.000877333
6.19662e-06
1.20739e-06
0.000871875
6.7914e-06
-2.21434e-06
0.000872139
6.77975e-06
-5.33677e-06
0.000878123
6.16716e-06
-5.51491e-06
0.000885021
4.06349e-06
-3.02995e-06
0.000877154
6.98418e-06
0.000773453
3.72102e-06
4.30872e-06
0.000762116
3.23407e-06
6.01473e-06
0.000867952
6.32613e-06
6.80777e-06
0.000880844
2.2146e-06
4.43469e-06
0.000874823
4.88407e-06
1.64632e-06
0.00086944
5.2252e-06
-1.23786e-06
0.000869816
5.20898e-06
-3.93802e-06
0.000875963
4.86166e-06
-3.56049e-06
0.000882592
2.05108e-06
-2.45776e-06
0.000869863
6.18698e-06
0.000767633
3.36226e-06
4.59141e-06
0.000754385
3.14123e-06
5.29244e-06
0.000861141
6.11208e-06
6.52981e-06
0.000878473
1.13763e-06
4.52825e-06
0.000872507
4.32177e-06
2.21164e-06
0.00086742
4.34123e-06
-2.21853e-07
0.00086794
4.31312e-06
-2.68041e-06
0.000874135
4.2903e-06
-2.03539e-06
0.000881004
9.44751e-07
-2.10062e-06
0.000864004
5.92467e-06
0.000762247
3.28311e-06
5.01087e-06
0.000746309
3.06726e-06
5.03957e-06
0.000855033
6.0833e-06
6.63681e-06
0.000876421
4.59735e-07
4.90731e-06
0.000870206
4.03697e-06
2.94288e-06
0.000865633
3.75793e-06
8.23141e-07
0.000866354
3.71179e-06
-1.53338e-06
0.0008725
3.99452e-06
-7.16624e-07
0.000879933
2.55147e-07
-1.71433e-06
0.000859067
5.93313e-06
0.000757276
3.25471e-06
5.52195e-06
0.000737863
2.92674e-06
5.22079e-06
0.000849257
6.08091e-06
7.12774e-06
0.00087446
5.87788e-08
5.59698e-06
0.000867894
3.84822e-06
3.89618e-06
0.000864037
3.30276e-06
1.97605e-06
0.000865042
3.2374e-06
-4.24736e-07
0.000871086
3.81658e-06
3.88409e-07
0.000879256
-1.3643e-07
-1.17257e-06
0.000854651
5.97454e-06
0.000752911
3.18796e-06
6.17988e-06
0.000728951
2.7325e-06
5.75392e-06
0.000843627
6.05784e-06
8.00151e-06
0.000872386
-1.70934e-07
6.6091e-06
0.000865544
3.74646e-06
5.14448e-06
0.00086259
2.91495e-06
3.38574e-06
0.000863962
2.84048e-06
7.78008e-07
0.000869914
3.77949e-06
1.44302e-06
0.00087887
-2.82574e-07
-4.41084e-07
0.000850475
6.0552e-06
0.000749396
3.06903e-06
7.10623e-06
0.000719294
2.54837e-06
6.61489e-06
0.000838175
5.94117e-06
9.19432e-06
0.0008701
-2.94088e-07
8.05434e-06
0.000863022
3.6613e-06
6.71185e-06
0.000861255
2.67674e-06
5.0568e-06
0.000863059
2.55612e-06
2.32248e-06
0.00086888
3.76449e-06
2.79044e-06
0.000878768
-3.71237e-07
3.40514e-07
0.000846825
6.09158e-06
0.00074668
3.05023e-06
8.33716e-06
0.0007086
2.34963e-06
7.82978e-06
0.000832922
5.75465e-06
1.08768e-05
0.000867433
-3.85314e-07
9.935e-06
0.000860324
3.63505e-06
8.79551e-06
0.000859874
2.51607e-06
7.19079e-06
0.00086227
2.38761e-06
4.31446e-06
0.000867937
3.8115e-06
4.55497e-06
0.000878965
-4.46717e-07
1.20313e-06
0.000844164
6.00338e-06
0.000744742
3.13452e-06
9.9407e-06
0.000696525
2.12344e-06
9.60544e-06
0.000827706
5.54075e-06
1.32681e-05
0.000864153
-3.91622e-07
1.24226e-05
0.000857509
3.65086e-06
1.15933e-05
0.000858268
2.4253e-06
1.00004e-05
0.000861569
2.28396e-06
6.7799e-06
0.000867276
3.87112e-06
6.67595e-06
0.000879571
-5.12846e-07
2.2558e-06
0.000842743
5.82926e-06
0.000743745
3.24411e-06
1.20837e-05
0.000682538
1.888e-06
1.22574e-05
0.000822216
5.30249e-06
1.64658e-05
0.000860246
-3.15488e-07
1.58492e-05
0.000854503
3.60936e-06
1.52161e-05
0.00085652
2.36795e-06
1.35675e-05
0.000861037
2.16693e-06
9.88607e-06
0.000867071
3.87346e-06
9.20243e-06
0.000880787
-5.46149e-07
3.58242e-06
0.000842707
5.64263e-06
0.000743986
3.33203e-06
1.49318e-05
0.000665904
1.68265e-06
1.59558e-05
0.000816111
5.06381e-06
2.0728e-05
0.000855649
-1.91238e-07
2.04451e-05
0.000851225
3.54525e-06
1.99274e-05
0.000854689
2.33241e-06
1.81262e-05
0.00086077
2.05174e-06
1.38456e-05
0.000867483
3.85281e-06
1.23149e-05
0.000882833
-5.29335e-07
5.26429e-06
0.000844257
5.48584e-06
0.000745805
3.4352e-06
1.86717e-05
0.000645641
1.56949e-06
2.09547e-05
0.000808934
4.87407e-06
2.63713e-05
0.000850186
2.69555e-08
2.65147e-05
0.000847552
3.51078e-06
2.60563e-05
0.000852752
2.37681e-06
2.39901e-05
0.000860821
1.99772e-06
1.89478e-05
0.000868651
3.85676e-06
1.62436e-05
0.000885958
-4.37344e-07
7.42209e-06
0.000847691
5.37122e-06
0.000749579
3.63682e-06
2.34907e-05
0.000620506
1.61939e-06
2.76291e-05
0.000799972
4.80107e-06
3.38134e-05
0.000843563
4.17417e-07
3.44544e-05
0.00084332
3.57031e-06
3.40205e-05
0.00085061
2.55557e-06
3.15573e-05
0.0008612
2.06474e-06
2.55505e-05
0.000870703
3.93721e-06
2.12811e-05
0.000890436
-2.25039e-07
1.02122e-05
0.000853402
5.34193e-06
0.000755787
3.9931e-06
2.95915e-05
0.000588933
1.95445e-06
3.64558e-05
0.00078812
4.96453e-06
4.35725e-05
0.000835387
1.0364e-06
4.4779e-05
0.000838298
3.79321e-06
4.43475e-05
0.00084809
2.93012e-06
4.13361e-05
0.000861873
2.31743e-06
3.409e-05
0.000873775
4.15439e-06
2.78202e-05
0.000896493
1.9485e-07
1.38489e-05
0.00086189
5.46647e-06
0.000765059
4.56575e-06
3.71343e-05
0.000549039
2.73019e-06
4.80318e-05
0.000771681
5.51641e-06
5.62821e-05
0.000825126
1.98695e-06
5.81412e-05
0.000832144
4.27034e-06
5.76944e-05
0.000844933
3.58026e-06
5.40022e-05
0.000862711
2.8322e-06
4.51652e-05
0.000878002
4.59005e-06
3.63451e-05
0.000904398
8.97753e-07
1.86152e-05
0.000873776
5.82621e-06
0.00077822
5.44175e-06
4.61507e-05
0.0004987
4.15629e-06
6.2968e-05
0.000748167
6.67158e-06
7.27263e-05
0.000811918
3.4244e-06
7.53419e-05
0.000824366
5.13818e-06
7.48984e-05
0.000840736
4.61648e-06
7.04278e-05
0.000863429
3.72997e-06
5.9617e-05
0.000883443
5.34906e-06
4.75183e-05
0.00091452
1.95757e-06
2.49118e-05
0.000889836
6.52876e-06
0.000796375
6.74439e-06
5.64275e-05
0.000435735
6.50469e-06
8.16999e-05
0.000714173
8.69451e-06
9.37914e-05
0.000794278
5.52251e-06
9.73457e-05
0.000814208
6.57751e-06
9.70134e-05
0.000834859
6.18335e-06
9.17381e-05
0.000863506
5.17463e-06
7.86e-05
0.000889981
6.57898e-06
6.23064e-05
0.000927268
3.5268e-06
3.33222e-05
0.000911062
7.74044e-06
0.000821031
8.65312e-06
6.72449e-05
0.000358507
9.94519e-06
0.000104214
0.000665326
1.18508e-05
0.000120272
0.000769624
8.56891e-06
0.000125294
0.000800352
8.80655e-06
0.00012535
0.000826283
8.49387e-06
0.000119449
0.000861998
7.38392e-06
0.000103713
0.000897178
8.51504e-06
8.21468e-05
0.000943001
5.81445e-06
4.47566e-05
0.000938736
9.69739e-06
0.000854349
1.1425e-05
7.70171e-05
0.000267169
1.42806e-05
0.000129358
0.000596774
1.6182e-05
0.000152587
0.000733482
1.28866e-05
0.000160401
0.000780281
1.2228e-05
0.000161542
0.000813289
1.18261e-05
0.000155578
0.000857302
1.06333e-05
0.000137273
0.000904006
1.14531e-05
0.000109238
0.000961888
9.12698e-06
6.06349e-05
0.000974576
1.27418e-05
0.000899536
1.54329e-05
8.29485e-05
0.000165551
1.86237e-05
0.00015388
0.000504534
2.12803e-05
0.000189852
0.000678768
1.8714e-05
0.000203783
0.000748983
1.73396e-05
0.000207659
0.000792754
1.66299e-05
0.000202828
0.000846769
1.5335e-05
0.000182641
0.000908373
1.57944e-05
0.000147137
0.000983497
1.38709e-05
8.35312e-05
0.00102079
1.73669e-05
0.000961807
2.12428e-05
8.01691e-05
6.45987e-05
2.07323e-05
0.000171301
0.00038749
2.58853e-05
0.000228677
0.000595186
2.61805e-05
0.000255828
0.000696876
2.49291e-05
0.000266233
0.000758728
2.35937e-05
0.000265012
0.000826016
2.19453e-05
0.00024486
0.000906462
2.2036e-05
0.000201623
0.00100612
2.05864e-05
0.000117707
0.00108044
2.42422e-05
0.00104986
2.96398e-05
6.01887e-05
-1.4227e-05
1.85887e-05
0.000171647
0.000248365
2.76445e-05
0.000261664
0.000470404
3.47465e-05
0.000313861
0.000608709
3.59488e-05
0.000339044
0.000699678
3.38433e-05
0.000346834
0.000786996
3.12051e-05
0.000331349
0.000891188
3.07358e-05
0.000282729
0.00102477
2.99461e-05
0.00017387
0.00115484
3.44324e-05
0.00118163
4.20743e-05
1.51132e-05
-5.31564e-05
2.38053e-05
0.00014605
8.42424e-05
3.31824e-05
0.000277889
0.000292421
4.6135e-05
0.000371337
0.000464303
5.09449e-05
0.000426868
0.000595705
4.84259e-05
0.000454883
0.000714957
4.40062e-05
0.000453484
0.000850149
4.24176e-05
0.000406539
0.00102944
4.22646e-05
0.0002696
0.00124297
4.87949e-05
0.00139108
6.01398e-05
-3.22402e-07
-8.05101e-05
2.77174e-05
0.000106003
-6.67408e-05
4.46789e-05
0.000258576
7.51464e-05
6.47024e-05
0.000400414
0.000248526
7.39314e-05
0.000512206
0.000413412
7.04846e-05
0.000588215
0.000576363
6.2564e-05
0.000627226
0.000752898
5.82163e-05
0.00059814
0.00100037
5.81264e-05
0.000477329
0.00129481
6.89535e-05
0.00178124
8.71518e-05
7.40889e-05
5.65959e-06
-0.000160225
0.000174179
2.40773e-05
-0.000190889
0.000284036
5.86146e-05
-9.33264e-05
0.000413
8.50398e-05
3.44955e-05
0.000565878
9.22991e-05
0.000168191
0.00071763
8.57693e-05
0.000338795
0.000854784
7.70581e-05
0.000538647
0.000905881
7.46462e-05
0.000874604
0.000893084
8.66496e-05
0.00122094
0.000122425
0.0025519
5.47543e-05
0.000971587
2.29624e-05
2.05692e-05
0.00106836
2.05099e-05
6.45585e-06
0.0010497
2.12565e-05
2.28064e-06
0.00103937
2.1453e-05
7.4252e-08
0.00103751
2.15806e-05
-2.13825e-06
0.00103751
2.15798e-05
-6.32954e-06
0.00103938
2.145e-05
-2.04671e-05
0.00104972
2.12508e-05
-5.46392e-05
0.00106834
2.05033e-05
0.000971712
2.2969e-05
3.97902e-05
0.000939543
2.36596e-05
2.28293e-05
0.00110231
2.26439e-05
1.29108e-05
0.00107836
2.29426e-05
5.85522e-06
0.00106427
2.32077e-05
2.24733e-07
0.00106117
2.34083e-05
-5.4276e-06
0.00106119
2.34065e-05
-1.25477e-05
0.00106433
2.32018e-05
-2.25607e-05
0.00107846
2.29368e-05
-3.96107e-05
0.00110235
2.26154e-05
0.000939873
2.36844e-05
2.37207e-05
0.000915346
1.65186e-05
1.7541e-05
0.00111473
1.72258e-05
1.15982e-05
0.00109256
1.64376e-05
5.78469e-06
0.00107787
1.64186e-05
3.88782e-07
0.00107466
1.65951e-05
-5.04047e-06
0.00107472
1.65915e-05
-1.09522e-05
0.00107802
1.64108e-05
-1.70075e-05
0.00109275
1.64269e-05
-2.32978e-05
0.00111485
1.71906e-05
0.000916118
1.65609e-05
1.45064e-05
0.000897911
1.14995e-05
1.48112e-05
0.00111421
1.43501e-05
9.7308e-06
0.00109888
1.29747e-05
4.81054e-06
0.00108451
1.27932e-05
5.85433e-07
0.00108102
1.30075e-05
-3.68451e-06
0.00108111
1.30011e-05
-8.74158e-06
0.00108479
1.27756e-05
-1.4001e-05
0.00109921
1.29608e-05
-1.3803e-05
0.00111438
1.4344e-05
0.00089942
1.15319e-05
9.69031e-06
0.00088476
8.51794e-06
1.34354e-05
0.00110682
1.27962e-05
8.79401e-06
0.00110018
1.11197e-05
4.38655e-06
0.0010869
1.10661e-05
8.29909e-07
0.00108297
1.13575e-05
-2.78994e-06
0.00108313
1.13494e-05
-7.38329e-06
0.00108735
1.10494e-05
-1.22006e-05
0.00110067
1.1093e-05
-8.66214e-06
0.00110722
1.27356e-05
0.000887309
8.559e-06
7.74385e-06
0.000874279
6.37752e-06
1.23407e-05
0.00109776
1.14763e-05
8.07986e-06
0.00109917
9.41805e-06
4.27958e-06
0.00108728
9.61571e-06
1.13318e-06
0.00108301
9.8922e-06
-2.08962e-06
0.00108325
9.88271e-06
-6.12304e-06
0.00108795
9.59887e-06
-1.06575e-05
0.0010999
9.36663e-06
-6.3217e-06
0.00109844
1.14292e-05
0.000878337
6.36911e-06
7.30921e-06
0.00086545
4.74919e-06
1.1705e-05
0.00108914
1.05479e-05
7.51948e-06
0.0010976
7.96162e-06
4.29073e-06
0.00108695
8.4293e-06
1.51665e-06
0.00108245
8.55695e-06
-1.35384e-06
0.00108278
8.54085e-06
-4.87952e-06
0.00108792
8.40782e-06
-9.53332e-06
0.00109869
7.90585e-06
-5.29069e-06
0.00108978
1.05943e-05
0.000871712
4.69356e-06
7.42845e-06
0.000857568
3.58674e-06
1.14325e-05
0.00108133
9.90174e-06
7.29782e-06
0.00109599
6.8743e-06
4.50297e-06
0.00108644
7.62354e-06
2.00745e-06
0.00108174
7.53552e-06
-6.2004e-07
0.00108219
7.51325e-06
-3.79075e-06
0.00108776
7.61416e-06
-8.48549e-06
0.00109753
6.7903e-06
-4.75369e-06
0.00108205
9.91459e-06
0.000866732
3.50501e-06
7.83668e-06
0.000850036
2.75327e-06
1.14393e-05
0.00107439
9.4107e-06
7.46045e-06
0.00109434
6.06874e-06
4.96586e-06
0.00108585
7.10763e-06
2.64352e-06
0.00108103
6.77962e-06
1.39069e-07
0.00108165
6.75196e-06
-2.85472e-06
0.00108762
7.11366e-06
-7.61776e-06
0.0010966
5.94293e-06
-4.4107e-06
0.00107525
9.52124e-06
0.00086295
2.62115e-06
8.39276e-06
0.000842375
2.1842e-06
1.15397e-05
0.00106846
8.8519e-06
7.92779e-06
0.00109262
5.37948e-06
5.65957e-06
0.00108521
6.74658e-06
3.46439e-06
0.00108034
6.17103e-06
1.02777e-06
0.00108117
6.13528e-06
-1.8785e-06
0.00108755
6.78628e-06
-6.50454e-06
0.00109589
5.18789e-06
-4.00038e-06
0.00106973
8.98256e-06
0.000860027
2.105e-06
9.07567e-06
0.000834257
1.76278e-06
1.17815e-05
0.00106357
8.235e-06
8.6503e-06
0.00109086
4.70606e-06
6.61463e-06
0.00108448
6.49056e-06
4.52585e-06
0.00107969
5.64544e-06
2.12441e-06
0.00108079
5.61573e-06
-6.79798e-07
0.00108748
6.64734e-06
-5.00297e-06
0.00109542
4.50006e-06
-3.53594e-06
0.0010661
8.21044e-06
0.000857723
1.83062e-06
9.90993e-06
0.000825583
1.301e-06
1.2522e-05
0.00105901
7.87459e-06
9.78308e-06
0.001089
4.29808e-06
7.88854e-06
0.00108377
6.2549e-06
5.91632e-06
0.00107902
5.31055e-06
3.53072e-06
0.00108054
5.18068e-06
6.94773e-07
0.00108766
6.41174e-06
-3.57e-06
0.00109537
3.93548e-06
-2.91525e-06
0.00106383
7.69543e-06
0.00085627
1.58238e-06
1.0908e-05
0.000816172
8.41014e-07
1.37929e-05
0.0010542
7.66707e-06
1.1383e-05
0.00108711
3.89952e-06
9.62133e-06
0.0010831
6.05865e-06
7.72694e-06
0.00107852
4.89305e-06
5.31939e-06
0.0010806
4.72508e-06
2.2863e-06
0.00108839
6.10372e-06
-2.1357e-06
0.0010959
3.43844e-06
-2.06223e-06
0.0010623
7.45492e-06
0.000856077
1.25847e-06
1.22423e-05
0.000805551
4.90079e-07
1.5496e-05
0.00104901
7.46814e-06
1.35087e-05
0.00108524
3.45915e-06
1.19371e-05
0.00108235
5.96206e-06
1.00585e-05
0.00107837
4.45237e-06
7.5777e-06
0.00108103
4.32674e-06
4.29329e-06
0.00108956
5.97595e-06
-4.36859e-07
0.00109705
3.05962e-06
-9.69774e-07
0.00106137
7.28659e-06
0.000857406
9.37981e-07
1.40196e-05
0.000793147
2.60707e-07
1.77483e-05
0.00104333
7.24176e-06
1.63544e-05
0.00108306
3.24878e-06
1.49619e-05
0.00108142
5.92255e-06
1.31123e-05
0.00107833
4.24722e-06
1.0492e-05
0.00108173
4.07708e-06
6.86231e-06
0.00109113
5.92642e-06
1.74531e-06
0.00109884
2.77496e-06
3.31157e-07
0.00106134
7.07306e-06
0.000860285
7.76322e-07
1.63643e-05
0.000778324
1.27541e-07
2.07761e-05
0.00103693
7.04167e-06
2.01042e-05
0.00108035
3.18173e-06
1.89075e-05
0.00108024
5.91227e-06
1.70859e-05
0.00107831
4.16004e-06
1.42641e-05
0.00108269
3.90702e-06
1.01707e-05
0.00109315
5.91129e-06
4.54916e-06
0.00110137
2.54697e-06
1.89777e-06
0.00106264
6.82545e-06
0.000864817
7.93191e-07
1.94252e-05
0.000760356
9.84402e-08
2.48762e-05
0.0010294
6.9429e-06
2.50221e-05
0.00107695
3.26818e-06
2.40473e-05
0.00107877
5.94731e-06
2.22423e-05
0.0010783
4.18443e-06
1.91468e-05
0.00108396
3.81243e-06
1.44372e-05
0.00109579
5.92283e-06
8.10949e-06
0.00110485
2.40852e-06
3.87104e-06
0.00106563
6.6037e-06
0.000871367
9.48581e-07
2.33682e-05
0.000738344
2.49132e-07
3.03442e-05
0.00102024
6.97601e-06
3.14324e-05
0.00107274
3.52689e-06
3.07312e-05
0.00107695
6.07844e-06
2.8922e-05
0.00107831
4.33758e-06
2.5464e-05
0.00108565
3.8238e-06
1.99459e-05
0.00109925
5.98605e-06
1.26364e-05
0.00110953
2.39264e-06
6.3979e-06
0.00107075
6.45099e-06
0.000880502
1.24745e-06
2.83965e-05
0.000711226
6.59898e-07
3.76066e-05
0.00100873
7.25214e-06
3.9765e-05
0.00106758
4.02316e-06
3.93996e-05
0.00107472
6.37705e-06
3.7562e-05
0.0010784
4.66911e-06
3.36408e-05
0.00108788
3.99458e-06
2.70956e-05
0.00110379
6.14556e-06
1.84141e-05
0.00111587
2.51632e-06
9.63934e-06
0.00107857
6.40803e-06
0.000892964
1.73374e-06
3.46911e-05
0.000677769
1.4803e-06
4.71037e-05
0.00099394
7.87659e-06
5.0558e-05
0.00106123
4.87002e-06
5.06016e-05
0.00107201
6.92755e-06
4.87259e-05
0.00107858
5.2629e-06
4.42292e-05
0.00109081
4.38259e-06
3.64048e-05
0.00110971
6.47979e-06
2.58559e-05
0.00112448
2.83023e-06
1.38321e-05
0.00108988
6.53198e-06
0.000909752
2.47598e-06
4.23538e-05
0.00063659
2.96403e-06
5.93183e-05
0.000974628
9.00565e-06
6.44461e-05
0.00105333
6.18082e-06
6.5012e-05
0.00106872
7.84971e-06
6.3125e-05
0.00107884
6.22871e-06
5.79577e-05
0.00109461
5.08591e-06
4.8565e-05
0.00111736
7.08152e-06
3.5537e-05
0.00113602
3.4347e-06
1.93012e-05
0.00110571
6.9173e-06
0.000932216
3.57146e-06
5.13743e-05
0.000586346
5.35648e-06
7.48039e-05
0.00094893
1.09502e-05
8.21856e-05
0.00104332
8.14655e-06
8.34586e-05
0.00106469
9.31556e-06
8.1663e-05
0.0010791
7.70897e-06
7.58025e-05
0.00109937
6.26055e-06
6.45308e-05
0.00112714
8.05486e-06
4.82757e-05
0.00115133
4.45138e-06
2.65472e-05
0.00112747
7.69099e-06
0.000962237
5.16801e-06
6.15047e-05
0.000525767
9.00066e-06
9.38589e-05
0.000914381
1.40316e-05
0.000104634
0.00103001
1.10836e-05
0.000106959
0.00105961
1.15541e-05
0.000105512
0.00107909
9.93815e-06
9.90903e-05
0.00110505
8.11544e-06
8.56953e-05
0.00113943
9.60524e-06
6.53063e-05
0.00117147
6.05598e-06
3.63331e-05
0.00115709
9.04234e-06
0.0010025
7.47965e-06
7.20243e-05
0.000453974
1.40288e-05
0.000116251
0.000867777
1.85445e-05
0.0001325
0.00101129
1.53441e-05
0.000136742
0.0010526
1.49861e-05
0.000136186
0.00107823
1.32275e-05
0.000129633
0.00111128
1.09367e-05
0.000114088
0.00115443
1.19853e-05
8.85509e-05
0.00119761
8.50603e-06
4.98903e-05
0.00119724
1.12343e-05
0.001057
1.08148e-05
8.14789e-05
0.000371095
1.99998e-05
0.000140806
0.000805116
2.45998e-05
0.000166109
0.000983354
2.13363e-05
0.00017416
0.00104182
2.0054e-05
0.000175625
0.00107541
1.79737e-05
0.000169978
0.0011171
1.51504e-05
0.000152775
0.00117184
1.55679e-05
0.000121178
0.00123093
1.21348e-05
6.94871e-05
0.00125163
1.46493e-05
0.00113211
1.56073e-05
8.72463e-05
0.000278996
2.5556e-05
0.000164528
0.000722034
3.16694e-05
0.000204788
0.000939798
2.94625e-05
0.000220665
0.00102341
2.74447e-05
0.000226426
0.00106846
2.47655e-05
0.000223717
0.00112054
2.11962e-05
0.000206433
0.00119037
2.07715e-05
0.000168477
0.00127208
1.73795e-05
9.88699e-05
0.0013257
1.97583e-05
0.00123817
2.24326e-05
8.5631e-05
0.000184116
2.78012e-05
0.000182248
0.000615359
3.76833e-05
0.00024578
0.000871305
3.96906e-05
0.00027703
0.000989913
3.81779e-05
0.000291675
0.00105323
3.44127e-05
0.000295685
0.00111819
2.95316e-05
0.000282102
0.00120683
2.78458e-05
0.000239755
0.00131982
2.45335e-05
0.000147959
0.00142474
2.71657e-05
0.00139616
3.20266e-05
7.10267e-05
0.000110016
2.68395e-05
0.000188162
0.000489271
4.21163e-05
0.000284192
0.000769989
5.14043e-05
0.000342418
0.000930331
5.22862e-05
0.000374718
0.00102222
4.71246e-05
0.000392414
0.00110459
3.98907e-05
0.000390431
0.00121493
3.62876e-05
0.000350544
0.00136891
3.30428e-05
0.000232798
0.00155437
3.68906e-05
0.00164405
4.50274e-05
4.9597e-05
6.9007e-05
1.90887e-05
0.000176842
0.000361032
4.56544e-05
0.000307577
0.000640505
6.34341e-05
0.000407953
0.000835661
6.82084e-05
0.000475662
0.000963329
6.16457e-05
0.000520877
0.00107115
5.07753e-05
0.000547021
0.00120296
4.4024e-05
0.000521894
0.00141161
4.05326e-05
0.000420527
0.00167686
4.78091e-05
0.00209054
6.11845e-05
6.50808e-05
-1.21393e-05
2.17093e-05
0.000179638
3.17742e-05
0.000238757
0.000320574
5.79197e-05
0.00050024
0.000457231
6.69781e-05
0.000717043
0.000576544
6.11283e-05
0.000875153
0.000676777
4.82362e-05
0.00100841
0.000772859
3.85283e-05
0.00114537
0.000804274
3.4823e-05
0.00141999
0.000799943
4.77963e-05
0.00172002
7.69038e-05
0.002936
5.69104e-05
0.000957752
8.30056e-06
2.13127e-05
0.00104972
6.39136e-06
6.35998e-06
0.00102991
6.29954e-06
2.13917e-06
0.00101936
6.31674e-06
7.02622e-08
0.00101732
6.3303e-06
-2.00483e-06
0.00101733
6.32977e-06
-6.24321e-06
0.00101937
6.315e-06
-2.12219e-05
0.00102993
6.2968e-06
-5.67952e-05
0.00104969
6.38925e-06
0.000957871
8.30334e-06
4.18411e-05
0.000926341
1.32335e-05
2.3125e-05
0.00107838
1.27059e-05
1.26006e-05
0.00105098
1.24023e-05
5.79221e-06
0.00103684
1.25382e-05
2.18196e-07
0.00103371
1.26002e-05
-5.37693e-06
0.00103373
1.2599e-05
-1.22496e-05
0.00103692
1.25333e-05
-2.28694e-05
0.0010511
1.23947e-05
-4.16969e-05
0.00107845
1.26883e-05
0.000926618
1.32421e-05
2.4948e-05
0.000906511
1.14043e-05
1.6752e-05
0.00109256
1.12415e-05
1.09643e-05
0.0010626
1.06149e-05
5.64392e-06
0.00104791
1.06769e-05
3.79095e-07
0.00104483
1.07391e-05
-4.921e-06
0.00104489
1.07366e-05
-1.03382e-05
0.00104808
1.06711e-05
-1.62259e-05
0.00106281
1.06046e-05
-2.45494e-05
0.00109274
1.1221e-05
0.000907211
1.14196e-05
1.45761e-05
0.000894383
9.05471e-06
1.34337e-05
0.00109886
9.20205e-06
9.02673e-06
0.00107147
8.50584e-06
4.57856e-06
0.00105669
8.46089e-06
5.74344e-07
0.00105331
8.53994e-06
-3.47834e-06
0.00105341
8.53651e-06
-8.061e-06
0.00105699
8.45348e-06
-1.25962e-05
0.00107182
8.49461e-06
-1.38754e-05
0.00109919
9.18109e-06
0.000895804
9.06456e-06
8.28962e-06
0.000887062
7.55052e-06
1.17583e-05
0.00110013
8.0521e-06
8.21258e-06
0.00107866
7.47926e-06
4.15908e-06
0.00106433
7.47665e-06
8.18459e-07
0.00106038
7.62957e-06
-2.58551e-06
0.00106054
7.6267e-06
-6.81649e-06
0.0010648
7.46735e-06
-1.05376e-05
0.00107916
7.46662e-06
-7.27796e-06
0.00110063
8.03741e-06
0.00088953
7.55522e-06
4.83193e-06
0.000882248
6.35725e-06
1.02734e-05
0.00109909
7.07151e-06
7.4753e-06
0.0010844
6.47601e-06
4.04252e-06
0.00107079
6.59209e-06
1.12202e-06
0.00106637
6.8129e-06
-1.87751e-06
0.00106661
6.81011e-06
-5.53724e-06
0.00107147
6.58359e-06
-8.59357e-06
0.00108513
6.45312e-06
-3.42428e-06
0.00109984
7.0448e-06
0.000886115
6.35713e-06
3.12832e-06
0.000878535
5.32916e-06
9.09225e-06
0.00109751
6.16451e-06
6.69578e-06
0.00108939
5.36107e-06
3.99167e-06
0.00107632
5.59873e-06
1.50504e-06
0.00107159
5.82059e-06
-1.08511e-06
0.00107191
5.81727e-06
-4.08786e-06
0.00107728
5.59158e-06
-6.86549e-06
0.00109048
5.32905e-06
-1.2163e-06
0.00109864
6.14017e-06
0.000884262
5.32656e-06
2.33841e-06
0.000875214
4.56219e-06
8.35405e-06
0.0010959
5.48421e-06
6.19127e-06
0.001094
4.41882e-06
4.12193e-06
0.00108121
4.79286e-06
1.9918e-06
0.00107629
4.95722e-06
-2.76467e-07
0.00107673
4.95386e-06
-2.72312e-06
0.00108255
4.78636e-06
-5.39909e-06
0.00109556
4.37605e-06
7.01019e-08
0.00109761
5.46104e-06
0.000883265
4.5671e-06
2.04557e-06
0.000871861
4.05196e-06
7.97205e-06
0.00109433
5.04244e-06
6.06052e-06
0.00109825
3.71517e-06
4.51221e-06
0.0010856
4.25389e-06
2.61491e-06
0.00108062
4.3388e-06
5.40445e-07
0.00108122
4.33241e-06
-1.47985e-06
0.00108742
4.24813e-06
-4.10546e-06
0.00110046
3.65823e-06
9.7315e-07
0.00109702
5.02711e-06
0.000882774
4.07925e-06
2.12707e-06
0.000868195
3.71246e-06
7.84327e-06
0.00109273
4.72329e-06
6.22804e-06
0.00110208
3.15654e-06
5.14798e-06
0.00108954
3.87665e-06
3.41531e-06
0.00108463
3.87951e-06
1.45647e-06
0.00108543
3.8673e-06
-2.0902e-07
0.00109199
3.88056e-06
-2.78593e-06
0.00110516
3.0589e-06
1.66555e-06
0.00109683
4.71147e-06
0.000882733
3.80491e-06
2.55235e-06
0.000864004
3.39078e-06
8.0487e-06
0.001091
4.46149e-06
6.68435e-06
0.00110543
2.70819e-06
6.04206e-06
0.00109306
3.59248e-06
4.44971e-06
0.00108835
3.50274e-06
2.55958e-06
0.00108945
3.48071e-06
1.19459e-06
0.00109637
3.62158e-06
-1.36686e-06
0.00110967
2.54217e-06
2.22086e-06
0.00109705
4.39618e-06
0.000883161
3.61736e-06
3.2242e-06
0.000859022
3.04682e-06
8.58459e-06
0.0010892
4.29736e-06
7.54346e-06
0.00110837
2.38469e-06
7.24128e-06
0.00109623
3.38402e-06
5.81758e-06
0.00109187
3.20416e-06
3.96896e-06
0.00109332
3.1495e-06
2.7257e-06
0.00110059
3.42052e-06
4.15742e-08
0.00111416
2.1186e-06
2.83444e-06
0.00109777
4.17896e-06
0.000884128
3.44344e-06
4.20472e-06
0.000852897
2.75029e-06
9.5369e-06
0.00108732
4.20477e-06
8.84265e-06
0.00111083
2.12417e-06
8.8932e-06
0.00109901
3.21289e-06
7.577e-06
0.00109512
2.9498e-06
5.73168e-06
0.00109703
2.85137e-06
4.47648e-06
0.00110472
3.22732e-06
1.60095e-06
0.00111872
1.75074e-06
3.61882e-06
0.00109915
4.04139e-06
0.000885721
3.27789e-06
5.58201e-06
0.00084528
2.51272e-06
1.10525e-05
0.00108515
4.15684e-06
1.06779e-05
0.00111276
1.89076e-06
1.11032e-05
0.00110145
3.09136e-06
9.83731e-06
0.00109812
2.71472e-06
7.93599e-06
0.00110065
2.59811e-06
6.61522e-06
0.00110889
3.1074e-06
3.45967e-06
0.00112345
1.47121e-06
4.53586e-06
0.00110138
3.97137e-06
0.000888114
3.07388e-06
7.42873e-06
0.000835757
2.34334e-06
1.31752e-05
0.00108248
4.15468e-06
1.3226e-05
0.00111419
1.75678e-06
1.39713e-05
0.00110358
3.03313e-06
1.27804e-05
0.00110098
2.56809e-06
1.07662e-05
0.00110431
2.42201e-06
9.24612e-06
0.00111327
3.05848e-06
5.63986e-06
0.00112855
1.27432e-06
5.62291e-06
0.00110449
3.97019e-06
0.000891633
2.8734e-06
9.84566e-06
0.000823776
2.25076e-06
1.6053e-05
0.00107911
4.19689e-06
1.66572e-05
0.00111504
1.72264e-06
1.76983e-05
0.00110541
3.03015e-06
1.65946e-05
0.00110373
2.50074e-06
1.44042e-05
0.00110808
2.31108e-06
1.25345e-05
0.00111798
3.06e-06
8.30886e-06
0.00113418
1.12674e-06
6.98992e-06
0.00110864
3.98833e-06
0.000896645
2.76499e-06
1.29656e-05
0.000808654
2.24184e-06
1.99258e-05
0.00107476
4.31569e-06
2.12062e-05
0.00111521
1.80544e-06
2.25383e-05
0.00110692
3.08924e-06
2.15245e-05
0.0011064
2.51834e-06
1.90825e-05
0.00111206
2.26519e-06
1.66891e-05
0.00112318
3.10726e-06
1.16538e-05
0.00114058
1.03793e-06
8.7383e-06
0.00111412
4.0233e-06
0.000903561
2.76455e-06
1.69511e-05
0.000789565
2.37289e-06
2.50911e-05
0.00106905
4.53729e-06
2.71746e-05
0.00111461
2.03065e-06
2.88149e-05
0.00110812
3.23425e-06
2.78847e-05
0.00110901
2.63791e-06
2.51045e-05
0.00111635
2.29951e-06
2.19842e-05
0.00112906
3.21197e-06
1.58962e-05
0.00114802
1.03115e-06
1.09894e-05
0.00112138
4.09082e-06
0.000912914
2.87669e-06
2.19674e-05
0.000765529
2.71457e-06
3.19009e-05
0.00106144
4.9158e-06
3.49402e-05
0.00111313
2.44876e-06
3.6926e-05
0.00110898
3.51194e-06
3.60749e-05
0.00111163
2.8935e-06
3.2861e-05
0.0011211
2.45362e-06
2.87811e-05
0.00113588
3.40068e-06
2.13025e-05
0.00115687
1.1342e-06
1.38925e-05
0.00113097
4.21879e-06
0.000925413
3.12031e-06
2.81713e-05
0.000735453
3.36957e-06
4.07503e-05
0.00105119
5.53698e-06
4.49681e-05
0.00111064
3.13213e-06
4.73566e-05
0.00110952
3.98735e-06
4.66013e-05
0.00111429
3.34062e-06
4.28539e-05
0.00112644
2.77273e-06
3.75528e-05
0.00114393
3.71837e-06
2.82504e-05
0.0011676
1.3865e-06
1.76743e-05
0.00114362
4.44791e-06
0.00094202
3.53658e-06
3.56612e-05
0.000698255
4.48669e-06
5.2119e-05
0.00103722
6.50968e-06
5.78207e-05
0.00110694
4.17192e-06
6.06999e-05
0.00110973
4.74915e-06
6.00979e-05
0.00111706
4.0563e-06
5.57433e-05
0.00113254
3.32552e-06
4.89309e-05
0.00115358
4.23093e-06
3.72673e-05
0.00118084
1.84829e-06
2.26407e-05
0.00116031
4.83694e-06
0.000964032
4.19252e-06
4.43567e-05
0.000652994
6.24616e-06
6.63955e-05
0.00101812
7.99962e-06
7.41157e-05
0.00110167
5.68404e-06
7.76566e-05
0.00110958
5.91759e-06
7.73504e-05
0.00111992
5.1426e-06
7.24078e-05
0.00113952
4.20928e-06
6.37885e-05
0.00116522
5.01838e-06
4.91061e-05
0.00119736
2.59831e-06
2.92568e-05
0.00118237
5.46615e-06
0.000993268
5.18137e-06
5.40332e-05
0.000599191
8.75429e-06
8.39095e-05
0.000992038
1.02202e-05
9.45521e-05
0.00109424
7.85632e-06
9.90506e-05
0.00110897
7.656e-06
9.93441e-05
0.0011228
6.74367e-06
9.40053e-05
0.00114741
5.55435e-06
8.33745e-05
0.00117925
6.19398e-06
6.48861e-05
0.00121815
3.74293e-06
3.82209e-05
0.00121163
6.4425e-06
0.00103233
6.62808e-06
6.41564e-05
0.000536941
1.21048e-05
0.000104358
0.000957046
1.33217e-05
0.000119594
0.0010835
1.08381e-05
0.000125803
0.00110757
1.01646e-05
0.000127296
0.00112548
9.04342e-06
0.000122099
0.00115601
7.51746e-06
0.000109499
0.00119593
7.89257e-06
8.63503e-05
0.00124438
5.41084e-06
5.06671e-05
0.00125063
7.89821e-06
0.00108512
8.68578e-06
7.36366e-05
0.000467203
1.60821e-05
0.000126879
0.00091104
1.73496e-05
0.000149461
0.00106745
1.47836e-05
0.000158852
0.00110455
1.36605e-05
0.000162659
0.0011274
1.22346e-05
0.000158788
0.00116475
1.02703e-05
0.000144853
0.00121517
1.02458e-05
0.000116362
0.00127727
7.72061e-06
6.86644e-05
0.001303
9.96535e-06
0.00115787
1.15113e-05
8.11416e-05
0.00039178
1.98143e-05
0.0001498
0.000851878
2.21571e-05
0.00018374
0.00104309
1.98715e-05
0.000199028
0.00109834
1.83579e-05