/*--------------------------------*- C++ -*----------------------------------*\
| =========                 |                                                 |
| \\      /  F ield         | OpenFOAM: The Open Source CFD Toolbox           |
|  \\    /   O peration     | Version:  4.1                                   |
|   \\  /    A nd           | Web:      www.OpenFOAM.org                      |
|    \\/     M anipulation  |                                                 |
\*---------------------------------------------------------------------------*/
FoamFile
{
    version     2.0;
    format      ascii;
    class       volVectorField;
    location    "1900";
    object      U;
}
// * * * * * * * * * * * * * * * * * * * * * * * * * * * * * * * * * * * * * //

dimensions      [0 1 -1 0 0 0 0];

internalField   nonuniform List<vector> 
12000
(
(0.0919444 -0.00966657 0.00966191)
(0.0965492 -0.00180193 0.0105899)
(0.0959517 -0.00135218 0.0110046)
(0.0955605 -0.000558031 0.0110255)
(0.0954634 -0.000150717 0.0110553)
(0.0954637 0.000132785 0.0110552)
(0.0955612 0.000541327 0.011025)
(0.095953 0.00133706 0.0110038)
(0.0965499 0.0017874 0.0105881)
(0.0919498 0.0096577 0.0096624)
(0.0862241 -0.00381926 0.0038078)
(0.0951647 -0.00255437 0.00532907)
(0.0937636 -0.00197772 0.00576355)
(0.0926871 -0.000888237 0.00573722)
(0.0923512 -0.000280306 0.00577161)
(0.0923528 0.0002338 0.0057713)
(0.0926917 0.000845253 0.00573634)
(0.0937699 0.00194118 0.00576267)
(0.0951678 0.00252094 0.00532685)
(0.0862452 0.00380366 0.00381281)
(0.0822157 0.000804959 -0.000823607)
(0.0931388 -0.00255871 0.000175526)
(0.0918596 -0.0016493 0.000457764)
(0.0906191 -0.000797095 0.000456205)
(0.090139 -0.000301843 0.000494405)
(0.0901435 0.000222535 0.000493928)
(0.0906321 0.000723733 0.000454864)
(0.0918777 0.00158588 0.000456498)
(0.0931575 0.00250214 0.000173843)
(0.0822689 -0.000834258 -0.000817842)
(0.0794824 0.00272844 -0.00275664)
(0.0907576 -0.00249995 -0.00247363)
(0.0900652 -0.00116707 -0.00238005)
(0.0890336 -0.000668417 -0.00229857)
(0.0885263 -0.000302641 -0.00224698)
(0.088535 0.00018221 -0.00224773)
(0.0890592 0.000556933 -0.00230062)
(0.090101 0.00106792 -0.0023834)
(0.0907923 0.00241686 -0.00247805)
(0.0795897 -0.00277753 -0.00275043)
(0.0780656 0.00322235 -0.00326326)
(0.0890629 -0.00241734 -0.00352541)
(0.088997 -0.000776748 -0.00364503)
(0.0881931 -0.000624889 -0.00346647)
(0.0876777 -0.000314425 -0.0034027)
(0.0876919 0.000141438 -0.003404)
(0.0882345 0.000464925 -0.00347005)
(0.089058 0.000632438 -0.00364854)
(0.089131 0.00230347 -0.00352036)
(0.0782559 -0.00329698 -0.00325783)
(0.0772906 0.00312271 -0.00318002)
(0.0879886 -0.00229857 -0.00378691)
(0.0885031 -0.000478182 -0.00412166)
(0.0878274 -0.000630983 -0.00386142)
(0.0872925 -0.000326565 -0.00379641)
(0.087314 8.52972e-05 -0.00379799)
(0.0878927 0.000408482 -0.00386369)
(0.0885967 0.000276022 -0.00412419)
(0.0880679 0.00214308 -0.00378784)
(0.0775951 -0.00322793 -0.00317479)
(0.0766097 0.00280258 -0.00288125)
(0.0871667 -0.00216855 -0.00368255)
(0.0882196 -0.000261144 -0.00420358)
(0.0876058 -0.000657799 -0.00388283)
(0.0870588 -0.000334688 -0.00383002)
(0.0870902 4.61944e-06 -0.00383197)
(0.0876991 0.000355482 -0.00388391)
(0.08836 -1.686e-05 -0.00421112)
(0.0873175 0.00196345 -0.00368987)
(0.0770642 -0.00294647 -0.00287604)
(0.0758541 0.00242479 -0.00253155)
(0.0864514 -0.00205048 -0.00342619)
(0.0879699 -0.000125419 -0.00409679)
(0.0873803 -0.000706127 -0.00372659)
(0.0868498 -0.000346708 -0.00369634)
(0.0868937 -9.81461e-05 -0.00369991)
(0.0875153 0.000302019 -0.00372882)
(0.0881817 -0.000249448 -0.00410819)
(0.0866914 0.0017793 -0.00343212)
(0.076508 -0.00261751 -0.00252544)
(0.0750465 0.00205392 -0.00219725)
(0.085796 -0.00194812 -0.00311815)
(0.0877423 -6.29925e-05 -0.00391031)
(0.0871402 -0.000780625 -0.00350368)
(0.0866527 -0.000373245 -0.00349516)
(0.0867139 -0.000219704 -0.00350147)
(0.087334 0.000245087 -0.00350866)
(0.0880404 -0.000434987 -0.00392682)
(0.0861288 0.00158931 -0.00312403)
(0.0759681 -0.00230909 -0.00218989)
(0.0742168 0.00171432 -0.00190542)
(0.085212 -0.0018679 -0.00280035)
(0.0875431 -6.93407e-05 -0.00369197)
(0.0869061 -0.000880557 -0.0032689)
(0.0864791 -0.000422914 -0.00327667)
(0.0865637 -0.000362689 -0.00328562)
(0.0871759 0.000176081 -0.00327452)
(0.0879535 -0.00058155 -0.00371296)
(0.0856893 0.00139874 -0.00278528)
(0.0754926 -0.00204913 -0.00189503)
(0.073356 0.00140317 -0.00165646)
(0.0846399 -0.00181155 -0.00251338)
(0.0873494 -0.000135466 -0.00346498)
(0.0866722 -0.00100639 -0.00304156)
(0.086329 -0.000502489 -0.00306491)
(0.086443 -0.000535046 -0.00307578)
(0.0870369 7.99005e-05 -0.00304251)
(0.0878981 -0.000705494 -0.00348989)
(0.0852551 0.00119591 -0.00247793)
(0.0751015 -0.00183967 -0.00164122)
(0.0724346 0.00110714 -0.00144124)
(0.08408 -0.00178899 -0.00227796)
(0.0871208 -0.00024617 -0.00325432)
(0.0864366 -0.00116362 -0.00282564)
(0.0861841 -0.000622146 -0.00286559)
(0.0863492 -0.000734655 -0.00287348)
(0.0869508 -5.51383e-05 -0.00280366)
(0.0878796 -0.00084601 -0.00327007)
(0.0848472 0.000976092 -0.00222715)
(0.0747939 -0.00166777 -0.00141547)
(0.0714233 0.000818951 -0.00125684)
(0.0835512 -0.00180792 -0.00207879)
(0.0869005 -0.000404742 -0.00304065)
(0.0861736 -0.00136243 -0.00263005)
(0.0860759 -0.000794166 -0.00266175)
(0.0862747 -0.000979357 -0.00267982)
(0.0868418 -0.000243895 -0.00259332)
(0.0878853 -0.00102229 -0.00306482)
(0.0845229 0.000736522 -0.00202582)
(0.0745566 -0.00152704 -0.00121191)
(0.0702933 0.000531193 -0.00110176)
(0.0830321 -0.00188372 -0.00190363)
(0.086593 -0.000633127 -0.00285374)
(0.0858955 -0.00162073 -0.00246037)
(0.0859117 -0.00103729 -0.00248854)
(0.0861905 -0.00129052 -0.00251145)
(0.0867542 -0.000497563 -0.00241467)
(0.0879178 -0.00123572 -0.00288393)
(0.0843173 0.000476883 -0.00185962)
(0.0744031 -0.00141885 -0.0010307)
(0.0690039 0.000230054 -0.000972198)
(0.0825039 -0.00204025 -0.00174501)
(0.0862331 -0.000951843 -0.00268776)
(0.0856051 -0.0019608 -0.00231563)
(0.0857409 -0.00137403 -0.00234195)
(0.0861253 -0.00167709 -0.00236676)
(0.0867064 -0.000828815 -0.00226084)
(0.0880042 -0.00149826 -0.0027218)
(0.0842418 0.000189873 -0.00171535)
(0.0743594 -0.0013455 -0.000872184)
(0.0674927 -9.96021e-05 -0.000861514)
(0.0819309 -0.0022939 -0.00160238)
(0.0858099 -0.00138146 -0.00253414)
(0.0852929 -0.00240791 -0.0021896)
(0.0855621 -0.00183097 -0.00221221)
(0.0860843 -0.00216254 -0.00223977)
(0.0867137 -0.00125991 -0.00212546)
(0.0881631 -0.00183104 -0.00257263)
(0.0843132 -0.000138666 -0.00158599)
(0.0744562 -0.00130831 -0.000733196)
(0.0656733 -0.000473671 -0.000761804)
(0.0812788 -0.00266709 -0.00147144)
(0.0853124 -0.00195009 -0.00238664)
(0.0849493 -0.00299355 -0.00207562)
(0.0853761 -0.00244085 -0.00209177)
(0.0860744 -0.00277904 -0.00212234)
(0.0867916 -0.00182104 -0.00200099)
(0.088416 -0.00226101 -0.00243192)
(0.0845554 -0.000527568 -0.00146884)
(0.0747274 -0.00131055 -0.000607172)
(0.0634368 -0.000906744 -0.000665527)
(0.0804936 -0.00318828 -0.00134326)
(0.0847171 -0.00269856 -0.00223577)
(0.0845582 -0.00375853 -0.00196845)
(0.0851759 -0.00324493 -0.00197293)
(0.0860964 -0.00356764 -0.00200816)
(0.0869504 -0.0025507 -0.00188175)
(0.088791 -0.00282145 -0.00229466)
(0.0850043 -0.0010006 -0.00135886)
(0.075216 -0.00135846 -0.000486977)
(0.0606451 -0.00141235 -0.000561992)
(0.079484 -0.00389155 -0.00120848)
(0.0839872 -0.00367927 -0.00207324)
(0.0841022 -0.0047546 -0.00186107)
(0.084948 -0.00429564 -0.0018491)
(0.0861511 -0.00458073 -0.00189019)
(0.0872051 -0.00349681 -0.00176217)
(0.0893174 -0.00355445 -0.00215303)
(0.0857038 -0.00159012 -0.00124998)
(0.0759769 -0.00146271 -0.000365747)
(0.0571275 -0.00199843 -0.000437322)
(0.0781247 -0.00481539 -0.00105106)
(0.0830807 -0.00495741 -0.00189019)
(0.0835532 -0.00604656 -0.0017448)
(0.0846715 -0.0056585 -0.00171486)
(0.086232 -0.00588571 -0.00176096)
(0.0875676 -0.00472437 -0.0016365)
(0.0900092 -0.00451478 -0.00199788)
(0.0867112 -0.00233742 -0.00113445)
(0.077083 -0.00163752 -0.000234755)
(0.0526839 -0.00265956 -0.00027377)
(0.0762059 -0.00599226 -0.000851507)
(0.0819355 -0.00660857 -0.00167021)
(0.082871 -0.00771498 -0.00160653)
(0.0843157 -0.00741448 -0.00156077)
(0.0863194 -0.00756963 -0.00160946)
(0.088053 -0.00632018 -0.00149433)
(0.090905 -0.00577958 -0.00182187)
(0.088094 -0.0032986 -0.00100469)
(0.0786284 -0.00190464 -8.40468e-05)
(0.0470951 -0.00336562 -4.76785e-05)
(0.0734406 -0.00743335 -0.000587834)
(0.0804437 -0.00870544 -0.00139407)
(0.081996 -0.00985634 -0.00142824)
(0.0838305 -0.00966267 -0.00137466)
(0.0863754 -0.00974293 -0.00142306)
(0.0886606 -0.00840029 -0.00132178)
(0.0920445 -0.00745904 -0.00161247)
(0.0899432 -0.00455435 -0.000847124)
(0.080744 -0.00229568 0.000100965)
(0.0401538 -0.00403934 0.000260827)
(0.0694416 -0.00910089 -0.000232169)
(0.0784108 -0.0112918 -0.00104014)
(0.0808351 -0.0125763 -0.00118687)
(0.0831345 -0.0125234 -0.00113978)
(0.0863324 -0.0125486 -0.00118275)
(0.0893641 -0.0111236 -0.00110058)
(0.0934696 -0.00971157 -0.0013532)
(0.0923695 -0.00622663 -0.000645539)
(0.0836075 -0.0028633 0.000338456)
(0.0317499 -0.00452429 0.00064459)
(0.0637261 -0.0108521 0.000232658)
(0.0755237 -0.01433 -0.000571554)
(0.0792127 -0.0159731 -0.000850028)
(0.0821051 -0.0161381 -0.000832796)
(0.0860695 -0.0161714 -0.000867184)
(0.0901031 -0.0147107 -0.000804289)
(0.09521 -0.0127753 -0.00101952)
(0.0955263 -0.00850485 -0.000372804)
(0.0874932 -0.0036873 0.000655562)
(0.0219938 -0.00455342 0.00103573)
(0.055767 -0.0123661 0.000779619)
(0.0711877 -0.0176001 3.53406e-05)
(0.0768074 -0.0200768 -0.000362468)
(0.0805234 -0.020676 -0.000411657)
(0.0853853 -0.0208528 -0.000445213)
(0.0907344 -0.0194685 -0.000401627)
(0.0972759 -0.0170157 -0.000578346)
(0.0996165 -0.011712 5.76853e-06)
(0.0927948 -0.00492292 0.00109124)
(0.0114026 -0.00368818 0.00121262)
(0.0452377 -0.0130455 0.00127456)
(0.0645913 -0.0205677 0.000785028)
(0.0729646 -0.0247448 0.000346599)
(0.077993 -0.0263166 0.000186483)
(0.0839532 -0.0269215 0.000123422)
(0.0909729 -0.0258412 0.000149048)
(0.0995598 -0.0230089 1.29428e-05)
(0.104891 -0.0163898 0.000543056)
(0.100304 -0.00679656 0.00169602)
(0.00103897 -0.00118881 0.00111032)
(0.0319557 -0.0119849 0.00142854)
(0.0544286 -0.0223058 0.00153972)
(0.0664413 -0.0294262 0.00133798)
(0.0737561 -0.0330536 0.00108586)
(0.0812581 -0.0347382 0.000919064)
(0.0903895 -0.0344318 0.000900453)
(0.101885 -0.0316793 0.000808991)
(0.11173 -0.0236289 0.00131184)
(0.111078 -0.0100248 0.00257361)
(-0.0034796 0.00199174 0.00173849)
(0.0180702 -0.00827616 0.00189215)
(0.0401752 -0.0215556 0.00244062)
(0.0556584 -0.0331316 0.00258507)
(0.0663249 -0.0406174 0.00234341)
(0.0761624 -0.0447413 0.00203518)
(0.0878426 -0.0461431 0.00192018)
(0.103276 -0.0444508 0.00186315)
(0.119843 -0.0354655 0.00239484)
(0.128982 -0.0152125 0.00381805)
(-0.00616801 0.000212751 0.000704808)
(0.000503746 -0.00492528 0.00223029)
(0.0197122 -0.0174109 0.00398841)
(0.0382314 -0.0329661 0.00470402)
(0.0534689 -0.0464045 0.0044126)
(0.0672783 -0.0560222 0.00374325)
(0.0825597 -0.0618168 0.00332495)
(0.103399 -0.0635988 0.00321354)
(0.129357 -0.056509 0.00390467)
(0.156327 -0.0284706 0.00567311)
(-0.0118395 -0.00416231 -0.0017634)
(-0.0141558 -0.0136286 -0.00181233)
(-0.00364195 -0.0225628 0.00108494)
(0.0125353 -0.0337249 0.00457668)
(0.0297431 -0.0485897 0.00633536)
(0.0478105 -0.0645884 0.00633743)
(0.0670313 -0.0799919 0.00561681)
(0.0958162 -0.0898525 0.00508972)
(0.128751 -0.101402 0.00552415)
(0.217387 -0.0470497 0.00827626)
(0.0965458 -0.0105941 0.00179416)
(0.101347 -0.00134478 0.00133857)
(0.100928 -0.0012203 0.00144883)
(0.100658 -0.00045914 0.00142317)
(0.100615 -0.000114061 0.00143674)
(0.100615 9.96915e-05 0.00143661)
(0.100658 0.000445876 0.00142272)
(0.100929 0.00120791 0.00144806)
(0.101344 0.00133204 0.00133752)
(0.0965504 0.0105936 0.0017957)
(0.0951531 -0.00533907 0.00253532)
(0.108513 -0.0024431 0.00242464)
(0.10617 -0.00202673 0.00252327)
(0.10498 -0.000792456 0.00246973)
(0.104748 -0.000248225 0.00250348)
(0.104749 0.000203911 0.00250308)
(0.104983 0.000752722 0.00246855)
(0.106174 0.00199492 0.00252161)
(0.108514 0.00241408 0.00241928)
(0.0951723 0.00534252 0.00253983)
(0.0931113 -0.000191891 0.00252807)
(0.111966 -0.0029071 0.00287731)
(0.109305 -0.00174607 0.00286989)
(0.107681 -0.000675606 0.0028012)
(0.107331 -0.000284641 0.00284264)
(0.107335 0.000207498 0.00284203)
(0.107691 0.000605303 0.00279944)
(0.109319 0.00168825 0.00286708)
(0.111973 0.00284878 0.0028693)
(0.0931609 0.000182914 0.00253439)
(0.0907055 0.00244814 0.00245551)
(0.112082 -0.0032475 0.00320543)
(0.110093 -0.00125343 0.0031236)
(0.10853 -0.000541154 0.00307764)
(0.10817 -0.000305186 0.00312611)
(0.108177 0.000188535 0.00312526)
(0.10855 0.000434947 0.00307451)
(0.110118 0.00116197 0.00311976)
(0.1121 0.0031673 0.00320227)
(0.0908098 -0.0024864 0.0024611)
(0.0889755 0.00348758 0.0023555)
(0.111111 -0.00344834 0.00339154)
(0.110034 -0.000825912 0.0032647)
(0.10865 -0.000530796 0.00327221)
(0.108288 -0.000336741 0.00332786)
(0.1083 0.000170814 0.003327)
(0.108687 0.000380765 0.00327019)
(0.110075 0.000693051 0.00325984)
(0.111125 0.0033281 0.00337779)
(0.0891786 -0.00355084 0.00236102)
(0.0878518 0.00373286 0.00221411)
(0.110172 -0.00351656 0.00344076)
(0.109929 -0.000480959 0.00326735)
(0.10869 -0.000589011 0.00333275)
(0.108291 -0.000358202 0.00338039)
(0.10831 0.000131052 0.00337955)
(0.108745 0.000384788 0.00333006)
(0.10999 0.000288733 0.00325793)
(0.110244 0.00337024 0.00343813)
(0.0881579 -0.00384214 0.00221781)
(0.0869618 0.0036075 0.00205394)
(0.109332 -0.00352451 0.00342451)
(0.109835 -0.000221743 0.00319541)
(0.108714 -0.000671389 0.00331378)
(0.108275 -0.000360493 0.00333703)
(0.108303 5.58698e-05 0.0033354)
(0.108795 0.000398595 0.00331098)
(0.109925 -4.20343e-05 0.00318181)
(0.109397 0.00333766 0.00342767)
(0.0874647 -0.00376774 0.00206127)
(0.0861553 0.00332406 0.00189569)
(0.108518 -0.00348838 0.00335588)
(0.109696 -5.20776e-05 0.00309804)
(0.108687 -0.000772108 0.00326165)
(0.108222 -0.000353905 0.00325248)
(0.108261 -5.03541e-05 0.00324988)
(0.1088 0.000412022 0.00325968)
(0.109824 -0.00029544 0.00307976)
(0.108581 0.00322691 0.00334676)
(0.0869142 -0.00353325 0.00190628)
(0.0853776 0.00298108 0.00174046)
(0.107774 -0.00342835 0.00325322)
(0.109525 3.15409e-05 0.00298747)
(0.108624 -0.000891881 0.00318975)
(0.108145 -0.000351477 0.00314642)
(0.108198 -0.000181738 0.00314276)
(0.108777 0.000419991 0.00318821)
(0.109711 -0.000485733 0.00296469)
(0.107861 0.00309421 0.00325293)
(0.0864518 -0.00325325 0.00175369)
(0.0846309 0.00261809 0.00159023)
(0.107104 -0.00333388 0.00310411)
(0.109346 4.40674e-05 0.0028635)
(0.108554 -0.00102508 0.00309988)
(0.108068 -0.000362963 0.00302263)
(0.10814 -0.00033628 0.00301788)
(0.108758 0.00040563 0.00310114)
(0.109614 -0.000634622 0.0028372)
(0.107192 0.0028838 0.00309108)
(0.086142 -0.00295034 0.00161462)
(0.0838433 0.00227375 0.00144263)
(0.106579 -0.00324031 0.00293988)
(0.109169 8.57344e-06 0.00272278)
(0.108486 -0.00117365 0.00300214)
(0.107999 -0.000399681 0.00288716)
(0.108096 -0.000513766 0.00288457)
(0.108755 0.000359814 0.00301834)
(0.109558 -0.000782155 0.00270807)
(0.106748 0.00263337 0.00290094)
(0.085877 -0.00268552 0.00148134)
(0.0830025 0.00196531 0.0012969)
(0.106132 -0.00319959 0.00280076)
(0.109004 -8.1426e-05 0.00260432)
(0.10841 -0.0013473 0.00288921)
(0.10794 -0.000473405 0.00276781)
(0.108063 -0.000718585 0.00274873)
(0.10874 0.000277736 0.0028948)
(0.109529 -0.000930678 0.00257501)
(0.106476 0.00240536 0.00275015)
(0.0856757 -0.00248331 0.00135658)
(0.0821104 0.00167403 0.00115852)
(0.105669 -0.00319465 0.00267325)
(0.108796 -0.000240277 0.00246428)
(0.108344 -0.00155423 0.00277956)
(0.107863 -0.000596599 0.00261951)
(0.108046 -0.00096115 0.00260419)
(0.108793 0.000159161 0.00276884)
(0.109551 -0.00109323 0.00243776)
(0.106299 0.00219122 0.00262994)
(0.0855833 -0.00233617 0.00124162)
(0.08112 0.00138228 0.00103268)
(0.105169 -0.00323353 0.00254159)
(0.108621 -0.000454812 0.00233013)
(0.108276 -0.00181162 0.00268671)
(0.107841 -0.000778701 0.00248132)
(0.108076 -0.00125 0.00247522)
(0.108891 -1.14974e-05 0.00267142)
(0.109637 -0.00128455 0.00231543)
(0.106171 0.0019617 0.00252051)
(0.0856388 -0.00223193 0.00113899)
(0.0799838 0.00107388 0.000920975)
(0.104627 -0.00331908 0.00240336)
(0.108424 -0.00074686 0.00223133)
(0.108194 -0.00213133 0.00260053)
(0.107834 -0.0010403 0.0023811)
(0.108134 -0.00160195 0.00236874)
(0.109028 -0.000253772 0.002585)
(0.109781 -0.00151641 0.00220979)
(0.10611 0.00169516 0.00240872)
(0.0858553 -0.00215836 0.00105333)
(0.0786369 0.000741239 0.000823182)
(0.104032 -0.00347426 0.00226784)
(0.108184 -0.00113328 0.00215006)
(0.108089 -0.00253305 0.00251875)
(0.107833 -0.00140465 0.00229848)
(0.108217 -0.00203409 0.00227518)
(0.109205 -0.000588533 0.00250505)
(0.109995 -0.00180518 0.00211622)
(0.106167 0.00137798 0.00229785)
(0.0862197 -0.00210811 0.000986851)
(0.0770158 0.000372986 0.000742313)
(0.103346 -0.00372512 0.00214474)
(0.107881 -0.0016408 0.00208668)
(0.107957 -0.00304307 0.00244397)
(0.107831 -0.00190043 0.00223209)
(0.108326 -0.00257046 0.00219342)
(0.109434 -0.00104022 0.00243023)
(0.110292 -0.00217167 0.00203704)
(0.106375 0.000998235 0.00219489)
(0.0867632 -0.00208484 0.000941494)
(0.0750424 -4.6492e-05 0.000685191)
(0.102523 -0.00409203 0.00203625)
(0.107502 -0.00230275 0.0020437)
(0.107795 -0.00369508 0.00238382)
(0.10783 -0.00256302 0.00218297)
(0.108472 -0.00324427 0.00212791)
(0.109734 -0.0016396 0.0023643)
(0.110693 -0.00264146 0.001976)
(0.106771 0.000537578 0.00210598)
(0.0875346 -0.00209546 0.000920271)
(0.0726122 -0.00052949 0.000661019)
(0.101513 -0.00461053 0.00195647)
(0.107039 -0.003162 0.00202506)
(0.107594 -0.00453264 0.00234586)
(0.107835 -0.0034371 0.00215648)
(0.108665 -0.00409856 0.00208472)
(0.110128 -0.00242881 0.00231342)
(0.111231 -0.00324932 0.00193764)
(0.107405 -2.76949e-05 0.00203791)
(0.0885979 -0.00214708 0.000928654)
(0.0696239 -0.00109123 0.000685154)
(0.100223 -0.00530818 0.00191526)
(0.106471 -0.00427227 0.00204189)
(0.107348 -0.0056103 0.00233833)
(0.107848 -0.00457891 0.00216245)
(0.10892 -0.00518902 0.00206962)
(0.110646 -0.00346261 0.0022882)
(0.111968 -0.00404311 0.00192746)
(0.108343 -0.000731193 0.00199784)
(0.0900392 -0.00225296 0.000974372)
(0.0659346 -0.00173643 0.000780955)
(0.0985595 -0.00621252 0.00193029)
(0.105769 -0.00569435 0.00210477)
(0.107051 -0.00699444 0.00237347)
(0.107871 -0.00605818 0.00221212)
(0.109253 -0.0065876 0.00209362)
(0.111317 -0.00481393 0.00229801)
(0.112961 -0.00508821 0.00195502)
(0.109679 -0.00161933 0.0019981)
(0.0919734 -0.00243011 0.00106907)
(0.0614078 -0.00245223 0.000974741)
(0.0963733 -0.00736093 0.0020372)
(0.104894 -0.00749363 0.00222878)
(0.106689 -0.00876753 0.00246776)
(0.107899 -0.00795991 0.00231988)
(0.10968 -0.0083905 0.0021745)
(0.112179 -0.00658004 0.00235326)
(0.114287 -0.00647662 0.00203421)
(0.111529 -0.00276046 0.00205393)
(0.0945604 -0.00270769 0.00123001)
(0.0559185 -0.00320686 0.00129417)
(0.0934366 -0.00875515 0.00226765)
(0.10377 -0.00973673 0.00245136)
(0.106244 -0.0110273 0.00264103)
(0.107919 -0.0103913 0.00251114)
(0.110204 -0.0107251 0.00233459)
(0.113278 -0.00889877 0.0024794)
(0.11604 -0.00834534 0.00218487)
(0.114062 -0.00425836 0.00218991)
(0.0980227 -0.00312831 0.00148322)
(0.0493447 -0.00392688 0.0017387)
(0.0894904 -0.0103439 0.00263985)
(0.102235 -0.0124493 0.00280125)
(0.105666 -0.0138839 0.00293975)
(0.107891 -0.0134863 0.00281593)
(0.110811 -0.0137604 0.0026044)
(0.11464 -0.0119648 0.00270445)
(0.118333 -0.0109019 0.0024373)
(0.117499 -0.00627697 0.00243796)
(0.102695 -0.00376327 0.0018661)
(0.041602 -0.00446208 0.00224397)
(0.0841411 -0.0119963 0.00315023)
(0.100028 -0.015583 0.00331489)
(0.104832 -0.017438 0.00340069)
(0.107737 -0.0174063 0.00327461)
(0.111445 -0.0177279 0.00303353)
(0.116282 -0.0160616 0.00307366)
(0.121295 -0.0144745 0.00283132)
(0.122171 -0.00909953 0.00284897)
(0.109064 -0.00474955 0.00243484)
(0.032742 -0.00455648 0.00264609)
(0.0769632 -0.0134135 0.00371951)
(0.0966643 -0.0189349 0.00402333)
(0.10351 -0.0217514 0.0040971)
(0.107315 -0.0223655 0.0039546)
(0.11196 -0.0229376 0.00366955)
(0.118118 -0.0216077 0.00364029)
(0.125023 -0.0195946 0.00342477)
(0.128496 -0.0132099 0.00348415)
(0.118056 -0.00627862 0.00326737)
(0.0230435 -0.00387794 0.00263698)
(0.06743 -0.0140943 0.00410859)
(0.0913387 -0.0220585 0.00492306)
(0.101201 -0.0267447 0.00515249)
(0.106376 -0.0285849 0.00495291)
(0.112146 -0.0297963 0.00457529)
(0.120004 -0.029183 0.00445029)
(0.129578 -0.0271386 0.00427813)
(0.137151 -0.019592 0.00444895)
(0.130898 -0.00903476 0.00448782)
(0.0139578 -0.00205493 0.00259828)
(0.055752 -0.0134181 0.00444158)
(0.0831592 -0.0243169 0.00600178)
(0.0969627 -0.0321139 0.00661963)
(0.104333 -0.0362428 0.00637511)
(0.111482 -0.0388131 0.00580637)
(0.121345 -0.0396225 0.00552898)
(0.134566 -0.0384724 0.00539556)
(0.148372 -0.030193 0.00580231)
(0.151817 -0.013452 0.00624497)
(0.0079425 -0.000537204 0.00272649)
(0.0424453 -0.011166 0.00514025)
(0.0714161 -0.0245384 0.00738899)
(0.0896589 -0.0366278 0.00855144)
(0.100508 -0.0448994 0.00828897)
(0.109684 -0.0504597 0.00741718)
(0.121772 -0.0539797 0.00686434)
(0.139758 -0.055641 0.00673475)
(0.162733 -0.0489394 0.00764219)
(0.183367 -0.025444 0.00874784)
(0.00487383 -0.00252023 0.000279888)
(0.0295406 -0.0111187 0.00433331)
(0.0567302 -0.0246884 0.00761388)
(0.0777477 -0.0393603 0.00952053)
(0.0924031 -0.0523777 0.00964125)
(0.104552 -0.0633489 0.00864047)
(0.118126 -0.0732411 0.0077139)
(0.142252 -0.0806742 0.00747406)
(0.171458 -0.0895724 0.00896372)
(0.250098 -0.0418121 0.0119847)
(0.0959491 -0.0110088 0.0013442)
(0.100929 -0.00145477 0.00121404)
(0.100636 -0.00116365 0.00115778)
(0.100399 -0.000457481 0.00117126)
(0.100359 -0.000113296 0.00117692)
(0.100359 9.98127e-05 0.00117682)
(0.100399 0.000445126 0.00117095)
(0.100636 0.00115205 0.00115723)
(0.100926 0.00144154 0.00121362)
(0.0959513 0.0110111 0.00134466)
(0.0937534 -0.00577361 0.00195705)
(0.106171 -0.00254168 0.0020071)
(0.103679 -0.00194022 0.0019211)
(0.102512 -0.00078806 0.00196508)
(0.102275 -0.000241719 0.00197589)
(0.102276 0.0001988 0.00197577)
(0.102516 0.000749425 0.00196457)
(0.103685 0.00191018 0.00192029)
(0.106171 0.00251359 0.00200498)
(0.0937711 0.00578209 0.00195849)
(0.0918333 -0.000473696 0.00161431)
(0.109306 -0.00289984 0.00171173)
(0.106057 -0.00163969 0.00160579)
(0.10442 -0.000650806 0.00164312)
(0.10407 -0.000271637 0.00165237)
(0.104074 0.000196457 0.00165218)
(0.104432 0.00058278 0.00164273)
(0.106074 0.00158433 0.00160486)
(0.109319 0.00284127 0.00170996)
(0.0918761 0.000467717 0.00161687)
(0.0900143 0.00235583 0.00111414)
(0.110092 -0.00316521 0.0012021)
(0.107075 -0.00113208 0.00108107)
(0.105481 -0.000503287 0.00110123)
(0.10513 -0.000291497 0.00111162)
(0.105138 0.000177078 0.00111131)
(0.105504 0.000399924 0.00110076)
(0.107103 0.00104325 0.00108048)
(0.110117 0.00307927 0.00120058)
(0.0901125 -0.00239225 0.00111598)
(0.0889119 0.00361024 0.000700997)
(0.110031 -0.00332084 0.000753329)
(0.107574 -0.000690156 0.000617708)
(0.106122 -0.000499606 0.000635268)
(0.105766 -0.000327953 0.000652299)
(0.105779 0.00016423 0.000651971)
(0.106159 0.000352474 0.000634308)
(0.107616 0.000556835 0.000616698)
(0.11007 0.00320656 0.00075364)
(0.0891002 -0.00368001 0.000702711)
(0.0883732 0.00407115 0.000373222)
(0.109922 -0.00333992 0.00038149)
(0.108108 -0.000309783 0.000210136)
(0.106736 -0.000567576 0.000233122)
(0.106331 -0.000351465 0.000253832)
(0.106351 0.000126206 0.000253348)
(0.106793 0.000366647 0.000232244)
(0.108169 0.000119494 0.000207098)
(0.109985 0.00319236 0.00037667)
(0.0886791 -0.00418153 0.000373824)
(0.0880275 0.00413462 0.000118581)
(0.109827 -0.00328997 8.71638e-05)
(0.10868 4.06252e-06 -0.000137841)
(0.107353 -0.000654074 -0.000106381)
(0.106894 -0.00034854 -9.12083e-05)
(0.106922 4.56552e-05 -9.18484e-05)
(0.107434 0.000386072 -0.000107258)
(0.108769 -0.000263713 -0.00014291)
(0.109918 0.00309876 8.00891e-05)
(0.0884966 -0.0042913 0.000114787)
(0.0876994 0.00400317 -6.53251e-05)
(0.109686 -0.00321909 -0.000127579)
(0.109191 0.000234061 -0.000412293)
(0.107899 -0.000756681 -0.0003666)
(0.107409 -0.000330736 -0.000364005)
(0.107447 -7.10276e-05 -0.000364816)
(0.108013 0.000403166 -0.000367503)
(0.109321 -0.00058165 -0.000417905)
(0.109819 0.00297656 -0.000131893)
(0.0883803 -0.00421021 -7.44842e-05)
(0.0873619 0.00378596 -0.000189478)
(0.109518 -0.00314139 -0.000271201)
(0.109631 0.000380562 -0.000616866)
(0.108362 -0.000879736 -0.000551453)
(0.107862 -0.000313606 -0.000563716)
(0.107913 -0.000214897 -0.000564818)
(0.108518 0.000416404 -0.000551396)
(0.109816 -0.000841937 -0.000622932)
(0.109732 0.00283278 -0.000270205)
(0.0882959 -0.00404576 -0.000203607)
(0.0870119 0.00352966 -0.000264261)
(0.10935 -0.003062 -0.000362878)
(0.110025 0.000460689 -0.000770168)
(0.108768 -0.00102021 -0.000679765)
(0.108272 -0.000308457 -0.00070755)
(0.108341 -0.000382759 -0.00070941)
(0.108979 0.000415247 -0.000677067)
(0.110285 -0.00106977 -0.000780311)
(0.109679 0.00266473 -0.000353443)
(0.0882657 -0.00384904 -0.000278244)
(0.0866203 0.00325918 -0.000308272)
(0.109189 -0.00300212 -0.000428188)
(0.110383 0.000482711 -0.000884491)
(0.109138 -0.00117727 -0.000767194)
(0.108654 -0.000325789 -0.000811702)
(0.108748 -0.000575152 -0.00081526)
(0.109422 0.000388109 -0.00075975)
(0.110743 -0.00128127 -0.000902174)
(0.10968 0.00247996 -0.000414841)
(0.0882843 -0.00364933 -0.000313737)
(0.086178 0.00297996 -0.000343279)
(0.109008 -0.00295491 -0.000466798)
(0.1107 0.000440845 -0.000963448)
(0.109473 -0.00135623 -0.000822304)
(0.109017 -0.000376684 -0.000883683)
(0.109142 -0.000799181 -0.000889792)
(0.109851 0.000326685 -0.000806962)
(0.111192 -0.00147934 -0.000991265)
(0.109733 0.00228767 -0.000456553)
(0.0883504 -0.00346662 -0.000332891)
(0.085628 0.00270059 -0.00036996)
(0.108829 -0.00293838 -0.00048419)
(0.11097 0.000333664 -0.00101191)
(0.109771 -0.00156616 -0.000857423)
(0.109355 -0.000474945 -0.000927187)
(0.10952 -0.00105655 -0.000940424)
(0.110268 0.000222017 -0.000839464)
(0.111643 -0.00167184 -0.00105482)
(0.109828 0.00206318 -0.00047797)
(0.088485 -0.00330069 -0.000348609)
(0.0849473 0.00241416 -0.000383271)
(0.108632 -0.00297713 -0.000483191)
(0.111191 0.000160043 -0.00104771)
(0.110031 -0.00181849 -0.000876501)
(0.109667 -0.000634407 -0.000960439)
(0.109886 -0.00135423 -0.000977566)
(0.11068 6.24419e-05 -0.000856689)
(0.112105 -0.0018832 -0.00109988)
(0.11001 0.00181676 -0.000487684)
(0.0886742 -0.00316511 -0.000362844)
(0.0841015 0.00210902 -0.000382608)
(0.108394 -0.00307336 -0.000468602)
(0.11136 -9.10754e-05 -0.00106675)
(0.110259 -0.00212769 -0.000882509)
(0.109959 -0.000871333 -0.000980801)
(0.110248 -0.00170874 -0.00100217)
(0.111106 -0.000166482 -0.000861701)
(0.112594 -0.00212733 -0.00113138)
(0.110275 0.00155305 -0.000488333)
(0.0889614 -0.00305798 -0.00036678)
(0.0830417 0.00177258 -0.000369942)
(0.108096 -0.00323535 -0.000441914)
(0.111475 -0.000437538 -0.00106844)
(0.110457 -0.00251171 -0.00087733)
(0.110239 -0.00120684 -0.000988232)
(0.110618 -0.00213747 -0.00101566)
(0.111557 -0.000482498 -0.000856815)
(0.113126 -0.00242024 -0.00115247)
(0.110634 0.00125279 -0.000483321)
(0.0893796 -0.00297853 -0.000355426)
(0.0817035 0.00139313 -0.000345928)
(0.107718 -0.00348218 -0.000400917)
(0.111528 -0.00090324 -0.00105036)
(0.110624 -0.00299438 -0.000860876)
(0.110509 -0.00166753 -0.000981277)
(0.111004 -0.00266308 -0.00101723)
(0.112049 -0.000908557 -0.000842564)
(0.113723 -0.00278067 -0.00116187)
(0.111108 0.000896825 -0.000472982)
(0.0899676 -0.00292709 -0.000330041)
(0.0800155 0.000957923 -0.00030373)
(0.107226 -0.00383744 -0.00034171)
(0.11151 -0.00151894 -0.00100991)
(0.11076 -0.00360652 -0.000831586)
(0.110773 -0.00228669 -0.000957814)
(0.111415 -0.00331587 -0.00100567)
(0.112599 -0.00147412 -0.000818479)
(0.114409 -0.00323356 -0.00115756)
(0.111735 0.000466066 -0.00045666)
(0.0907693 -0.002909 -0.000290962)
(0.0778871 0.00045481 -0.000235196)
(0.106576 -0.00432604 -0.000257431)
(0.111409 -0.00232364 -0.000940441)
(0.110863 -0.0043865 -0.000784521)
(0.111034 -0.00310559 -0.00091432)
(0.111864 -0.00413464 -0.000977574)
(0.113228 -0.00221799 -0.000782453)
(0.115215 -0.00381139 -0.00113763)
(0.112566 -6.10583e-05 -0.000432469)
(0.0918466 -0.00293015 -0.000236321)
(0.0752151 -0.000126891 -0.000128239)
(0.105705 -0.00497428 -0.00013753)
(0.111214 -0.00336377 -0.000832174)
(0.110934 -0.00538163 -0.000711996)
(0.111297 -0.0041749 -0.000844571)
(0.112366 -0.00516935 -0.000927007)
(0.113966 -0.00319048 -0.0007301)
(0.116185 -0.00455729 -0.00109803)
(0.113662 -0.0007162 -0.000396468)
(0.0932815 -0.00300274 -0.000161559)
(0.0718806 -0.000788918 3.7829e-05)
(0.104529 -0.00581534 3.21741e-05)
(0.110912 -0.00469352 -0.000672465)
(0.110972 -0.00664978 -0.000602903)
(0.111567 -0.00555648 -0.000738924)
(0.112935 -0.00648487 -0.000845813)
(0.114843 -0.00445791 -0.000653426)
(0.117371 -0.00553022 -0.00103147)
(0.11511 -0.00154414 -0.000342768)
(0.0951864 -0.00314071 -5.91718e-05)
(0.0677936 -0.00152335 0.000285021)
(0.10292 -0.00686228 0.00027326)
(0.110474 -0.00636882 -0.000442584)
(0.110975 -0.00825861 -0.000441058)
(0.111848 -0.00732384 -0.000584321)
(0.113587 -0.00816548 -0.000721443)
(0.1159 -0.00610996 -0.000541867)
(0.118844 -0.00681339 -0.000927859)
(0.117021 -0.00260854 -0.000261638)
(0.0977134 -0.0033709 8.23267e-05)
(0.0628463 -0.00228874 0.000637096)
(0.100724 -0.00813369 0.000615013)
(0.109865 -0.00844132 -0.000118408)
(0.11094 -0.0102884 -0.000203491)
(0.112137 -0.00956462 -0.000361878)
(0.114331 -0.0103206 -0.000536183)
(0.117177 -0.00826912 -0.000380656)
(0.120692 -0.00852954 -0.000772423)
(0.119554 -0.0040051 -0.000139657)
(0.101081 -0.00372997 0.00027919)
(0.0570641 -0.00304463 0.00110977)
(0.0977208 -0.00957202 0.00108319)
(0.108988 -0.0109241 0.000331652)
(0.110848 -0.0128192 0.000142032)
(0.11242 -0.0123815 -4.38064e-05)
(0.11516 -0.0130927 -0.000266127)
(0.118709 -0.0111071 -0.000149044)