/*--------------------------------*- C++ -*----------------------------------*\
| =========                 |                                                 |
| \\      /  F ield         | OpenFOAM: The Open Source CFD Toolbox           |
|  \\    /   O peration     | Version:  4.1                                   |
|   \\  /    A nd           | Web:      www.OpenFOAM.org                      |
|    \\/     M anipulation  |                                                 |
\*---------------------------------------------------------------------------*/
FoamFile
{
    version     2.0;
    format      ascii;
    class       volScalarField;
    location    "1600";
    object      epsilon;
}
// * * * * * * * * * * * * * * * * * * * * * * * * * * * * * * * * * * * * * //

dimensions      [0 2 -3 0 0 0 0];

internalField   nonuniform List<scalar> 
12000
(
0.319874
0.312381
0.310967
0.310668
0.310596
0.310598
0.310674
0.310978
0.312213
0.319673
0.0651178
0.0634785
0.0627257
0.0622749
0.0621399
0.0621404
0.062277
0.0627258
0.0635219
0.0652177
0.0176329
0.0176402
0.017338
0.0171029
0.0170171
0.0170175
0.0171031
0.0173292
0.0176516
0.0176509
0.00614301
0.00631393
0.00620966
0.00610155
0.00605541
0.00605563
0.00610106
0.00619939
0.00631387
0.00615023
0.00262953
0.00275678
0.00272575
0.00267467
0.00264931
0.00264956
0.00267496
0.00272091
0.00275595
0.00263257
0.00132103
0.00140316
0.00139726
0.00137141
0.00135625
0.00135654
0.00137189
0.00139538
0.00140385
0.00132328
0.000749043
0.000803272
0.00080548
0.000790808
0.000781403
0.000781492
0.000791427
0.000805211
0.000802979
0.000751381
0.00046492
0.00050169
0.000507489
0.000498982
0.000492644
0.000492736
0.000499522
0.000507844
0.000502958
0.000467813
0.000309528
0.00033595
0.000342504
0.000337365
0.000333037
0.000333201
0.000337862
0.000343516
0.000336637
0.000312625
0.00021781
0.000237574
0.000244273
0.000241037
0.000237829
0.000237928
0.00024146
0.000244783
0.000238267
0.000220854
0.000160058
0.000175263
0.00018182
0.000179572
0.000177295
0.000177601
0.000180134
0.000182441
0.000176746
0.000163227
0.000122134
0.000135529
0.000140326
0.000138742
0.000137276
0.000137216
0.000139258
0.000141132
0.000135706
0.000125236
9.56891e-05
0.000104629
0.000111599
0.000110171
0.000109169
0.000109474
0.000111091
0.00011254
0.000107427
9.90678e-05
7.69191e-05
8.51463e-05
9.09441e-05
9.00603e-05
8.92616e-05
8.95812e-05
9.08295e-05
9.21208e-05
8.74018e-05
8.04632e-05
6.30611e-05
7.07802e-05
7.56641e-05
7.51922e-05
7.45612e-05
7.47652e-05
7.58771e-05
7.69516e-05
7.26101e-05
6.68485e-05
5.25409e-05
5.98703e-05
6.41229e-05
6.38627e-05
6.33877e-05
6.36481e-05
6.4533e-05
6.55014e-05
6.15138e-05
5.65914e-05
4.43434e-05
5.13539e-05
5.51403e-05
5.50134e-05
5.47006e-05
5.49735e-05
5.57434e-05
5.66192e-05
5.30921e-05
4.87648e-05
3.77859e-05
4.45173e-05
4.80666e-05
4.8047e-05
4.78839e-05
4.82321e-05
4.89266e-05
4.96918e-05
4.65942e-05
4.26785e-05
3.24023e-05
3.89656e-05
4.22978e-05
4.24064e-05
4.23742e-05
4.27243e-05
4.33871e-05
4.42321e-05
4.15461e-05
3.79589e-05
2.78489e-05
3.43059e-05
3.75826e-05
3.78342e-05
3.79424e-05
3.83693e-05
3.8993e-05
3.98237e-05
3.75129e-05
3.41905e-05
2.38727e-05
3.02767e-05
3.36003e-05
3.39934e-05
3.41859e-05
3.46492e-05
3.53327e-05
3.6281e-05
3.43762e-05
3.12798e-05
2.02642e-05
2.67057e-05
3.01953e-05
3.07785e-05
3.11155e-05
3.17189e-05
3.23816e-05
3.33273e-05
3.17721e-05
2.88945e-05
1.68652e-05
2.33943e-05
2.71633e-05
2.79685e-05
2.83675e-05
2.90372e-05
2.98561e-05
3.09803e-05
2.9816e-05
2.71484e-05
1.34973e-05
2.01198e-05
2.43859e-05
2.5562e-05
2.61549e-05
2.69693e-05
2.77783e-05
2.89434e-05
2.81278e-05
2.57109e-05
1.00368e-05
1.6652e-05
2.16328e-05
2.32487e-05
2.39396e-05
2.4863e-05
2.59601e-05
2.74161e-05
2.70078e-05
2.48678e-05
6.26462e-06
1.28993e-05
1.87832e-05
2.11652e-05
2.22417e-05
2.32891e-05
2.43405e-05
2.59735e-05
2.5957e-05
2.41987e-05
2.5903e-06
8.58085e-06
1.53733e-05
1.86003e-05
2.00585e-05
2.1435e-05
2.2933e-05
2.50254e-05
2.54425e-05
2.43141e-05
1.35599e-06
4.5826e-06
1.13036e-05
1.58497e-05
1.82845e-05
1.9788e-05
2.12364e-05
2.37721e-05
2.50286e-05
2.45185e-05
2.01365e-06
3.53913e-06
5.99673e-06
1.02221e-05
1.47337e-05
1.77851e-05
1.96266e-05
2.2783e-05
2.49841e-05
2.56725e-05
4.07536e-06
6.05715e-06
6.52601e-06
6.90678e-06
8.85876e-06
1.20649e-05
1.63787e-05
2.03086e-05
2.4468e-05
2.72901e-05
0.312379
1.02741
1.00374
1.00335
1.00327
1.00327
1.00335
1.00375
1.02775
0.312614
0.0634748
0.0274406
0.143665
0.13854
0.138372
0.138385
0.138577
0.143437
0.027696
0.0639563
0.0176369
0.000967444
0.0326759
0.0304996
0.030003
0.029862
0.0299522
0.03131
0.000988791
0.0177641
0.00631122
0.000223498
0.0132114
0.0123908
0.0121645
0.0120777
0.0121176
0.0125875
0.00022267
0.00636422
0.00275464
9.84117e-05
0.0058413
0.00551622
0.00540273
0.00534203
0.00536395
0.00554227
9.40287e-05
0.00277475
0.0014013
8.17467e-05
0.00258638
0.00248839
0.00245999
0.00243985
0.00244375
0.00253803
7.1047e-05
0.00140939
0.00080167
7.58343e-05
0.00116102
0.00105066
0.000989627
0.000943684
0.000964168
0.000987904
7.68627e-05
0.000804493
0.000500243
9.26063e-05
0.000492984
0.000624165
0.000716243
0.000776409
0.000734431
0.000803545
5.60024e-05
0.000503507
0.000334625
7.58924e-05
0.00029315
0.000334371
0.000392328
0.000429532
0.000411378
0.000427737
7.41976e-05
0.000337417
0.000236292
6.38688e-05
0.000262118
0.000148928
0.000177225
0.000183426
0.000153395
0.000218864
4.99732e-05
0.00023904
0.000174013
5.23328e-05
0.000171853
8.04709e-05
7.9137e-05
0.000173668
0.000143224
0.000208468
4.68188e-05
0.000177581
0.000134257
4.55388e-05
9.52484e-05
7.98035e-05
8.24633e-05
0.000114823
9.34669e-05
0.000143016
3.48082e-05
0.00013679
0.000103342
3.75512e-05
4.38226e-05
5.67743e-05
5.95659e-05
6.42249e-05
5.31375e-05
7.87656e-05
2.82287e-05
0.000108515
8.38024e-05
3.15027e-05
2.41606e-05
3.29115e-05
4.43831e-05
2.99791e-05
2.5672e-05
3.60677e-05
2.25642e-05
8.85074e-05
6.93662e-05
2.54731e-05
1.46081e-05
1.66682e-05
3.23113e-05
1.60436e-05
1.43463e-05
1.85621e-05
1.81387e-05
7.36756e-05
5.83606e-05
2.11349e-05
9.36828e-06
9.85993e-06
1.91198e-05
9.5434e-06
8.87196e-06
1.052e-05
1.57661e-05
6.24877e-05
4.97344e-05
1.89773e-05
7.13102e-06
6.57562e-06
1.0192e-05
6.45768e-06
6.25646e-06
6.83473e-06
1.34898e-05
5.3814e-05
4.27603e-05
1.63518e-05
5.81839e-06
4.93622e-06
6.37736e-06
4.92968e-06
4.96659e-06
4.88273e-06
1.20003e-05
4.71839e-05
3.70722e-05
1.54626e-05
5.57763e-06
4.03466e-06
4.68351e-06
4.08231e-06
4.27032e-06
4.30687e-06
1.09942e-05
4.18522e-05
3.22629e-05
1.47418e-05
5.41802e-06
3.79589e-06
3.73885e-06
3.74357e-06
3.96347e-06
3.96574e-06
1.05317e-05
3.7726e-05
2.81141e-05
1.42919e-05
5.39686e-06
3.66763e-06
3.5529e-06
3.55055e-06
3.59541e-06
3.77789e-06
9.74519e-06
3.42098e-05
2.44499e-05
1.3988e-05
5.57313e-06
3.65573e-06
3.42481e-06
3.45417e-06
3.54364e-06
3.60539e-06
8.947e-06
3.1488e-05
2.11616e-05
1.42044e-05
5.93003e-06
3.77345e-06
3.36554e-06
3.43735e-06
3.5607e-06
3.562e-06
8.26727e-06
2.89696e-05
1.80206e-05
1.48996e-05
6.58149e-06
4.11684e-06
3.51883e-06
3.51645e-06
3.66324e-06
3.62903e-06
7.55095e-06
2.70828e-05
1.49318e-05
1.52992e-05
7.87864e-06
4.60212e-06
3.75419e-06
3.64447e-06
3.86386e-06
3.84115e-06
7.08956e-06
2.51103e-05
1.17903e-05
1.61203e-05
9.56928e-06
5.46126e-06
4.28836e-06
3.99145e-06
4.16413e-06
4.14487e-06
6.57952e-06
2.37104e-05
8.51734e-06
1.74179e-05
1.16748e-05
6.54592e-06
4.95632e-06
4.55834e-06
4.67582e-06
4.70477e-06
6.54417e-06
2.20027e-05
5.37218e-06
1.89189e-05
1.42334e-05
8.31063e-06
6.05795e-06
5.19845e-06
5.27467e-06
5.36272e-06
6.607e-06
2.0597e-05
3.73518e-06
2.21719e-05
1.89212e-05
1.11148e-05
7.72757e-06
6.52592e-06
6.41624e-06
6.63101e-06
9.0881e-06
1.92608e-05
3.94095e-06
2.49605e-05
2.55456e-05
1.75313e-05
1.07777e-05
8.22055e-06
8.03053e-06
8.41612e-06
1.35323e-05
1.85586e-05
0.310966
1.00374
0.980283
0.980204
0.980105
0.980089
0.980202
0.980303
1.00388
0.311489
0.0627225
0.143708
0.0523573
0.0389125
0.0388938
0.039325
0.0389629
0.0515788
0.143309
0.0632402
0.0173348
0.0325619
0.0141852
0.00744591
0.00740953
0.0075985
0.0074337
0.0137199
0.0329455
0.0174834
0.00620658
0.013178
2.22613e-05
1.01404e-05
1.01445e-05
1.17823e-05
1.03441e-05
5.66376e-05
0.0133434
0.00627339
0.00272392
0.00578577
7.93971e-07
5.78947e-07
5.97776e-07
1.6672e-07
5.45935e-07
5.62769e-07
0.00586489
0.00275483
0.00139489
0.00263002
6.51197e-07
2.76254e-07
3.9645e-07
4.25439e-07
5.81034e-07
1.29053e-06
0.00267698
0.0014103
0.000803705
0.0010135
5.03783e-07
2.97781e-07
1.33218e-07
5.89531e-07
1.25422e-07
1.25704e-06
0.00100601
0.000812158
0.000505923
0.000829067
2.34702e-06
5.11932e-07
1.04541e-07
2.4335e-06
9.14607e-08
9.27348e-06
0.000892222
0.000511816
0.000341439
0.000439463
1.09543e-06
2.67256e-06
1.75366e-07
1.41344e-06
8.03914e-08
4.03914e-06
0.0004923
0.000345572
0.000242932
0.000215548
9.48389e-07
1.75435e-06
8.30637e-07
1.04367e-06
9.19061e-08
2.27964e-06
0.000176875
0.000246489
0.000180634
0.000200715
1.84784e-06
9.22205e-07
4.30456e-07
1.09315e-06
1.3966e-07
2.3416e-06
0.000172525
0.000183481
0.000139023
0.000125757
1.24059e-06
1.64947e-06
4.54743e-07
9.1753e-07
8.60375e-08
1.48718e-06
0.000122499
0.00014173
0.000110379
7.10114e-05
2.24404e-06
1.55652e-06
4.18778e-07
3.89551e-07
9.11354e-08
6.13985e-07
6.82715e-05
0.000112776
8.96583e-05
2.96561e-05
1.99271e-06
1.42693e-06
1.81883e-07
8.1623e-07
7.68296e-08
1.05828e-06
2.9462e-05
9.21074e-05
7.42768e-05
2.5382e-05
1.41207e-06
1.21985e-06
4.63975e-07
5.25918e-07
1.68044e-07
4.94071e-07
1.99734e-05
7.66639e-05
6.25754e-05
2.0195e-05
8.51178e-07
1.03353e-06
2.96975e-07
5.00786e-07
1.4786e-07
4.95807e-07
1.1145e-05
6.50989e-05
5.34311e-05
1.65427e-05
5.914e-07
7.10953e-07
1.67998e-07
4.32843e-07
1.447e-07
4.1037e-07
9.75037e-06
5.59875e-05
4.6124e-05
1.41055e-05
5.93182e-07
5.69452e-07
9.48369e-08
3.30651e-07
1.19053e-07
3.03387e-07
7.98506e-06
4.90314e-05
4.01339e-05
1.06938e-05
5.37301e-07
4.17676e-07
1.01744e-07
2.66868e-07
1.0965e-07
2.47147e-07
6.70365e-06
4.32543e-05
3.51084e-05
8.73905e-06
5.37111e-07
2.4907e-07
1.01294e-07
1.50696e-07
1.04112e-07
1.56796e-07
5.69317e-06
3.88324e-05
3.08154e-05
8.46031e-06
6.64524e-07
1.73698e-07
7.86486e-08
1.36936e-07
1.04068e-07
1.09536e-07
4.80592e-06
3.48499e-05
2.7019e-05
8.5819e-06
8.3583e-07
1.6263e-07
6.92537e-08
1.27962e-07
9.19303e-08
9.88446e-08
3.79127e-06
3.19032e-05
2.36204e-05
9.24923e-06
1.09353e-06
2.02982e-07
8.64367e-08
1.00878e-07
9.68008e-08
1.10145e-07
2.99618e-06
2.88887e-05
2.04556e-05
9.86865e-06
1.47947e-06
2.69715e-07
1.16433e-07
1.00654e-07
1.15286e-07
1.29741e-07
2.48739e-06
2.68689e-05
1.74986e-05
1.09631e-05
1.90823e-06
3.93432e-07
1.60288e-07
1.25316e-07
1.46201e-07
1.61007e-07
2.14192e-06
2.43517e-05
1.46623e-05
1.21354e-05
2.71702e-06
5.6841e-07
2.2602e-07
1.65367e-07
1.80233e-07
1.91843e-07
1.87645e-06
2.28924e-05
1.19168e-05
1.2829e-05
4.22747e-06
9.12041e-07
3.36428e-07
2.2366e-07
2.31037e-07
2.42324e-07
1.65024e-06
2.04445e-05
9.22893e-06
1.37599e-05
6.31723e-06
1.48007e-06
5.26915e-07
3.21497e-07
2.97163e-07
3.06467e-07
1.39395e-06
1.86839e-05
6.84971e-06
1.52392e-05
8.81738e-06
2.64334e-06
9.12618e-07
4.90969e-07
4.18051e-07
4.29326e-07
1.35254e-06
1.56187e-05
5.22809e-06
1.70787e-05
1.27651e-05
4.65143e-06
1.79527e-06
7.83097e-07
6.10785e-07
6.00809e-07
1.69704e-06
1.27941e-05
0.310667
1.00336
0.980172
0.980035
0.979887
0.97995
0.980022
0.980227
1.00349
0.311202
0.0622716
0.138602
0.0397605
0.0276722
0.0288354
0.0269632
0.0278174
0.0380846
0.138187
0.0627939
0.0170994
0.0303593
0.0078361
0.00321055
0.00348642
0.00299861
0.00323525
0.00696894
0.0306607
0.0172468
0.00609853
0.0123257
1.00882e-05
8.0768e-06
6.76191e-06
5.22806e-07
8.62651e-06
1.15805e-05
0.0124738
0.00616299
0.00267219
0.00547564
5.84069e-07
3.69271e-09
4.15268e-09
9.38996e-08
2.27568e-09
4.93825e-07
0.00553748
0.00270376
0.00136929
0.00249788
4.96669e-07
2.94602e-09
2.83841e-09
1.99027e-09
7.65053e-10
8.19245e-07
0.00253841
0.00138501
0.000788935
0.000986314
4.14352e-07
6.15901e-10
2.3248e-09
2.3594e-10
9.06933e-10
1.79972e-07
0.000971473
0.000798619
0.000497181
0.000761801
6.33763e-07
5.27069e-10
2.50538e-10
1.23721e-11
4.06188e-10
4.63243e-07
0.00082926
0.000503603
0.00033581
0.000408933
4.33299e-07
4.3483e-10
6.52899e-11
3.68406e-10
4.93341e-10
2.21405e-07
0.00045318
0.000340643
0.00023927
0.000194989
6.98971e-07
2.19438e-10
3.32554e-11
1.66172e-09
4.06163e-10
1.32401e-07
0.000202845
0.000243387
0.000178048
0.000175815
5.94573e-07
1.98889e-10
1.54474e-11
1.29769e-09
3.44802e-10
1.70422e-07
8.16201e-05
0.000181812
0.000137039
0.000108578
2.09436e-06
2.09169e-10
2.59465e-11
9.93262e-10
1.80204e-10
1.91046e-07
7.41478e-05
0.000140881
0.000108815
6.09465e-05
1.14601e-06
2.53346e-10
2.71833e-11
4.42659e-09
1.07622e-10
9.63107e-08
5.15512e-05
0.000112507
8.84192e-05
2.98795e-05
1.38119e-06
7.36212e-10
2.45743e-11
5.29561e-09
1.0237e-10
3.92048e-08
2.95848e-05
9.22567e-05
7.32801e-05
1.55385e-05
8.60445e-07
2.98561e-09
3.19355e-11
2.8246e-09
8.2378e-11
5.49056e-08
1.45052e-05
7.70837e-05
6.168e-05
1.32508e-05
5.26663e-07
1.40308e-09
4.09101e-11
3.65659e-09
5.62797e-11
2.56173e-08
8.44681e-06
6.56548e-05
5.26503e-05
1.13948e-05
3.03592e-07
1.64805e-08
8.59408e-11
3.32086e-09
5.20313e-11
2.47168e-08
5.20034e-06
5.66212e-05
4.54224e-05
1.01639e-05
4.78108e-07
1.10849e-08
3.84849e-10
1.53304e-09
8.81086e-11
2.54888e-08
4.79371e-06
4.96827e-05
3.95151e-05
9.41208e-06
4.15819e-07
1.7445e-08
8.19154e-11
2.51092e-09
8.39059e-11
2.40039e-08
4.16333e-06
4.38735e-05
3.45409e-05
8.29919e-06
4.39047e-07
1.66709e-08
1.58939e-09
1.62205e-09
7.4832e-10
2.22349e-08
3.69929e-06
3.94352e-05
3.02884e-05
7.9213e-06
5.43975e-07
2.0739e-08
1.13145e-09
7.08422e-10
6.08259e-10
2.09037e-08
3.16145e-06
3.53725e-05
2.65477e-05
8.15096e-06
7.07855e-07
3.61783e-08
2.34141e-09
1.37189e-09
6.8185e-10
2.04265e-08
2.47426e-06
3.24184e-05
2.32197e-05
8.86479e-06
9.54174e-07
6.02803e-08
3.10724e-09
8.55149e-10
7.61735e-10
1.99941e-08
2.35713e-06
2.93348e-05
2.01401e-05
9.54515e-06
1.33427e-06
1.16359e-07
8.75404e-09
1.91011e-09
1.12816e-09
1.87094e-08
2.15863e-06
2.73186e-05
1.72973e-05
1.05986e-05
1.76356e-06
2.01142e-07
1.63464e-08
1.91429e-09
1.66972e-09
1.73264e-08
1.87734e-06
2.47379e-05
1.46033e-05
1.17373e-05
2.45061e-06
3.44865e-07
3.93889e-08
6.2762e-09
3.10843e-09
2.27349e-08
1.69607e-06
2.32522e-05
1.20322e-05
1.22447e-05
3.91243e-06
5.81528e-07
7.91584e-08
1.04992e-08
4.00735e-09
1.45509e-08
1.38068e-06
2.06857e-05
9.56249e-06
1.28255e-05
5.51042e-06
1.10737e-06
1.83061e-07
3.68318e-08
1.23418e-08
1.47599e-08
1.18021e-06
1.88018e-05
7.26289e-06
1.36332e-05
7.34101e-06
1.73625e-06
3.58794e-07
7.09551e-08
1.8593e-08
2.03882e-08
8.28692e-07
1.55098e-05
5.20227e-06
1.44131e-05
9.42728e-06
2.90934e-06
7.37419e-07
1.85806e-07
6.29885e-08
3.24744e-08
8.91378e-07
1.23335e-05
0.310594
1.00328
0.980094
0.97996
0.97984
0.97984
0.979917
0.980117
1.00341
0.311129
0.0621361
0.138428
0.0392065
0.0266864
0.0270517
0.0270891
0.0278323
0.0383978
0.138022
0.0626567
0.0170131
0.0298667
0.0075462
0.00296333
0.00300511
0.00305556
0.00322594
0.00703024
0.0301529
0.0171583
0.00605203
0.0120906
1.25391e-05
0.00014356
6.22977e-07
1.77585e-05
9.30026e-06
1.37172e-05
0.0122327
0.00611439
0.00264649
0.00538258
1.58805e-07
2.2458e-05
7.1394e-08
8.55493e-09
1.55152e-08
1.08301e-07
0.00543775
0.00267698
0.00135393
0.00241696
6.67236e-07
7.23168e-07
8.09187e-08
1.07006e-12
7.44811e-11
1.23961e-07
0.00246207
0.0013693
0.000779125
0.00104675
9.00115e-07
4.96989e-09
2.2688e-11
2.62382e-13
7.83689e-11
7.73792e-08
0.00101399
0.000788736
0.000490606
0.000553788
7.94248e-07
1.6829e-09
6.95319e-14
6.58648e-15
4.16992e-11
6.61773e-08
0.000661953
0.000497206
0.000331183
0.000283149
5.39585e-07
1.49553e-10
1.21465e-14
4.07977e-14
3.91591e-11
7.57524e-08
0.000359886
0.000335948
0.000236019
0.000132738
6.7295e-07
1.36752e-09
6.72516e-13
3.00444e-13
2.15709e-11
3.82305e-08
0.000161858
0.000239927
0.000175535
6.17467e-05
1.1776e-06
4.4481e-10
3.41234e-13
1.0945e-10
9.05028e-12
5.81127e-08
0.000157751
0.000179563
0.000135442
6.30399e-05
6.18649e-07
5.12665e-10
4.44262e-14
5.48502e-12
1.27924e-11
2.36997e-07
0.000110721
0.000138909
0.000107332
4.60225e-05
1.31498e-06
3.28294e-09
6.13006e-13
8.84279e-12
5.11851e-12
6.94978e-08
6.17663e-05
0.000110909
8.72337e-05
2.77624e-05
1.06217e-06
7.64575e-09
5.20438e-12
5.15321e-12
3.94667e-12
3.93246e-08
2.96747e-05
9.09391e-05
7.23979e-05
1.54435e-05
1.04327e-06
2.73952e-09
1.6079e-11
1.80111e-12
1.78096e-12
1.35885e-08
1.39836e-05
7.59723e-05
6.09934e-05
1.03242e-05
7.90365e-07
5.79906e-09
5.17131e-11
1.66941e-11
2.65012e-11
3.66626e-08
1.15356e-05
6.46803e-05
5.20866e-05
7.4854e-06
6.40304e-07
8.19016e-09
1.20614e-10
1.32975e-11
2.00186e-11
2.4033e-08
7.29761e-06
5.58102e-05
4.49615e-05
7.19756e-06
4.29308e-07
5.52982e-09
2.09415e-10
1.57669e-11
2.13583e-11
2.64306e-08
6.32496e-06
4.89696e-05
3.91134e-05
6.64499e-06
3.3255e-07
1.39459e-08
3.86028e-10
2.07488e-11
2.45971e-11
1.87753e-08
5.30384e-06
4.32227e-05
3.41982e-05
6.62405e-06
3.53703e-07
1.26542e-08
4.923e-10
7.66945e-12
3.46184e-11
1.99379e-08
4.55672e-06
3.88701e-05
2.9998e-05
6.83213e-06
4.10337e-07
1.75131e-08
3.74368e-10
2.25986e-11
4.13036e-11
1.96137e-08
3.87966e-06
3.4862e-05
2.62952e-05
7.21968e-06
5.72983e-07
2.67784e-08
1.66914e-09
6.5846e-11
5.33436e-11
1.91131e-08
3.18008e-06
3.19439e-05
2.29954e-05
7.99198e-06
7.63148e-07
4.68967e-08
2.0013e-09
5.70581e-14
5.89423e-11
1.84292e-08
2.59731e-06
2.89041e-05
1.99428e-05
8.73618e-06
1.09863e-06
8.52416e-08
6.633e-09
4.67214e-10
1.0336e-10
1.59616e-08
2.23889e-06
2.69206e-05
1.71067e-05
9.73683e-06
1.49969e-06
1.57387e-07
1.17025e-08
1.90288e-10
1.43686e-10
1.38085e-08
1.88845e-06
2.43732e-05
1.44182e-05
1.11117e-05
2.07275e-06
2.65556e-07
3.1537e-08
4.56559e-09
3.77181e-10
1.20484e-08
1.67417e-06
2.28859e-05
1.18429e-05
1.1751e-05
3.48094e-06
4.84878e-07
5.79043e-08
5.03407e-09
1.48756e-09
1.0159e-08
1.34236e-06
2.0481e-05
9.33054e-06
1.24362e-05
5.07727e-06
9.20106e-07
1.45638e-07
2.99249e-08
9.68549e-10
1.13043e-08
1.1845e-06
1.85326e-05
6.97781e-06
1.33804e-05
7.02425e-06
1.58014e-06
2.90978e-07
4.84803e-08
1.33311e-08
1.05344e-08
8.01035e-07
1.53822e-05
4.77446e-06
1.41742e-05
9.06866e-06
2.70897e-06
6.50803e-07
1.68929e-07
3.37662e-08
1.85972e-08
8.83585e-07
1.17338e-05
0.310595
1.00328
0.980186
0.979953
0.979848
0.979877
0.979979
0.980127
1.00341
0.311128
0.0621361
0.13844
0.0367268
0.0268663
0.0270659
0.0261105
0.0262017
0.0381106
0.138023
0.0626559
0.017013
0.0296976
0.00647662
0.00298864
0.0030267
0.0028169
0.00283528
0.00691196
0.0300216
0.0171575
0.00605181
0.0119974
3.29509e-06
4.96619e-06
2.98975e-06
6.21513e-05
3.89798e-06
1.69226e-05
0.0121487
0.00611356
0.0026465
0.00530064
1.20136e-07
6.53299e-09
4.07062e-08
3.51923e-06
1.34526e-09
1.13648e-07
0.00538033
0.0026765
0.00135378
0.00242564
3.1856e-07
2.7546e-09
3.38042e-08
2.42601e-08
6.86564e-10
9.65035e-08
0.00243383
0.00136906
0.000779422
0.000930959
5.6645e-07
2.12524e-09
2.94933e-12
2.25317e-10
2.51165e-10
6.18144e-08
0.00100898
0.000788784
0.000490665
0.000795465
1.32994e-06
5.96835e-11
1.90057e-14
6.72992e-12
3.12235e-10
5.79302e-08
0.00064554
0.000497153
0.000331272
0.000437218
1.61621e-06
6.7358e-10
3.34229e-14
7.2246e-13
1.18742e-10
2.81979e-08
0.000346911
0.00033609
0.000235786
0.000191028
5.12445e-06
4.31111e-07
2.38615e-13
1.92322e-14
7.86418e-11
2.41238e-08
0.000160109
0.000240319
0.000175444
0.00018374
5.40727e-06
4.67443e-08
8.36323e-11
5.29001e-13
3.22919e-11
1.21792e-08
6.61829e-05
0.000179339
0.000135155
0.000122193
5.13868e-06
2.60978e-08
5.31299e-11
3.19663e-13
3.18809e-11
5.05805e-08
7.01063e-05
0.000139015
0.000107362
6.80727e-05
4.49467e-06
5.59219e-08
3.39463e-10
4.11639e-12
1.41448e-11
2.39931e-08
5.14427e-05
0.000110785
8.73476e-05
3.28863e-05
4.14322e-06
2.77193e-08
5.85619e-10
5.52471e-12
1.17051e-11
1.12155e-08
3.01135e-05
9.09155e-05
7.2408e-05
1.56938e-05
2.14612e-06
7.40742e-08
1.01772e-09
9.64039e-12
8.1635e-12
7.90438e-09
1.52753e-05
7.59666e-05
6.09988e-05
1.44832e-05
1.56902e-06
3.98873e-08
8.24631e-10
5.58515e-12
4.86643e-12
1.014e-08
9.05641e-06
6.47051e-05
5.20898e-05
1.21214e-05
1.16323e-06
5.02473e-08
3.608e-10
1.89092e-11
5.06803e-12
1.26235e-08
5.84375e-06
5.57921e-05
4.49658e-05
1.06072e-05
7.19284e-07
4.19236e-08
1.42269e-09
3.47014e-11
2.50395e-12
6.96308e-09
4.27013e-06
4.89153e-05
3.91132e-05
8.43602e-06
4.84251e-07
2.69131e-08
7.7914e-10
3.92688e-11
1.40663e-11
1.65075e-08
3.38243e-06
4.31686e-05
3.41995e-05
7.28616e-06
4.53147e-07
2.02659e-08
1.55222e-09
5.89989e-11
1.51013e-11
1.30948e-08
2.91089e-06
3.87494e-05
3.00036e-05
7.30263e-06
4.9382e-07
2.21839e-08
1.00966e-09
4.68281e-11
2.07517e-11
1.16889e-08
2.48888e-06
3.47193e-05
2.63052e-05
7.61697e-06
6.55691e-07
3.45365e-08
2.28027e-09
4.21676e-11
3.55306e-11
1.26436e-08
2.20707e-06
3.18033e-05
2.3016e-05
8.35938e-06
8.57579e-07
5.5163e-08
2.62641e-09
2.68829e-10
5.73217e-11
1.06062e-08
1.95573e-06
2.87121e-05
1.99715e-05
9.0731e-06
1.21143e-06
1.00274e-07
8.5198e-09
3.18642e-10
9.80652e-11
1.067e-08
1.86172e-06
2.67075e-05
1.71513e-05
1.01265e-05
1.59891e-06
1.7603e-07
1.35668e-08
1.78019e-09
2.05121e-10
9.87353e-09
1.57541e-06
2.4077e-05
1.44684e-05
1.13814e-05
2.2656e-06
2.92047e-07
3.81725e-08
2.76357e-09
4.8696e-10
8.19713e-09
1.38323e-06
2.25302e-05
1.18992e-05
1.19863e-05
3.66189e-06
5.20198e-07
6.2936e-08
1.1234e-08
1.23432e-09
6.99874e-09
1.13343e-06
2.00924e-05
9.39569e-06
1.26489e-05
5.30665e-06
9.9884e-07
1.65419e-07
2.04917e-08
4.1573e-09
6.69152e-09
1.0242e-06
1.84138e-05
7.05592e-06
1.35508e-05
7.24265e-06
1.65802e-06
3.15719e-07
7.06549e-08
7.66237e-09
8.41933e-09
6.8728e-07
1.47052e-05
4.86497e-06
1.43476e-05
9.33737e-06
2.84369e-06
6.82329e-07
1.59429e-07
4.9903e-08
1.64329e-08
7.50561e-07
1.26731e-05
0.310672
1.00335
0.980217
0.980066
0.979989
0.979975
0.980094
0.98021
1.00348
0.3112
0.0622725
0.138634
0.0385218
0.0266246
0.0261071
0.0264264
0.0260461
0.038529
0.138213
0.0627918
0.0170984
0.0298185
0.00725717
0.00293342
0.00282215
0.00286296
0.00278589
0.00710131
0.0301393
0.0172435
0.00609699
0.012044
1.06133e-05
1.89534e-06
1.99975e-05
0.000394794
6.549e-07
1.27889e-05
0.0122014
0.00615896
0.0026716
0.00534934
1.7309e-07
8.00742e-08
9.83243e-10
7.88767e-05
4.00672e-08
9.99208e-08
0.00540877
0.00270139
0.00136904
0.00238709
7.82303e-07
8.53089e-10
4.47825e-10
5.5267e-06
9.99543e-09
1.69377e-07
0.0024498
0.00138412
0.000788804
0.0010569
1.68749e-06
2.68273e-10
2.51727e-10
4.43492e-07
1.06305e-08
6.80449e-08
0.000985349
0.000798327
0.000497263
0.000495987
2.1085e-06
2.087e-10
9.52203e-11
1.31523e-07
4.78767e-09
6.33389e-08
0.000727868
0.000503522
0.000335397
0.000234286
1.92672e-06
1.21346e-10
8.47777e-11
1.16666e-08
3.45863e-09
3.41497e-08
0.000394508
0.000340642
0.000239034
0.000115924
1.5871e-06
9.19284e-11
4.51075e-11
3.5716e-10
1.82292e-09
2.10107e-08
0.000177949
0.000243422
0.000177702
0.000112743
7.3215e-07
1.63026e-10
3.00285e-11
1.19128e-09
7.86885e-10
2.13164e-08
7.21894e-05
0.000181811
0.000136923
7.68622e-05
2.15618e-06
6.01905e-10
2.05731e-11
1.10009e-09
3.11947e-10
1.22923e-07
6.53031e-05
0.000140858
0.000108795
4.45895e-05
2.05992e-06
1.16413e-09
1.71706e-11
6.47649e-10
2.33854e-10
2.47073e-08
4.28185e-05
0.000112494
8.84606e-05
2.29271e-05
1.93266e-06
1.39604e-08
5.27879e-11
4.38346e-10
1.27327e-10
2.93393e-08
2.46661e-05
9.22096e-05
7.32941e-05
1.41032e-05
1.0983e-06
8.0229e-09
1.34957e-10
1.20172e-10
5.77985e-11
1.23375e-08
1.27791e-05
7.70007e-05
6.1699e-05
9.31445e-06
5.96369e-07
2.0473e-08
2.39609e-10
4.20281e-10
1.12468e-10
2.8775e-08
7.21657e-06
6.56072e-05
5.26352e-05
8.27951e-06
3.04528e-07
9.78205e-09
2.95351e-10
2.07864e-10
9.96573e-11
1.87636e-08
6.18966e-06
5.65694e-05
4.53818e-05
8.08812e-06
4.5774e-07
2.12992e-08
3.84078e-10
3.02904e-10
4.1266e-10
2.21338e-08
5.27756e-06
4.96573e-05
3.94346e-05
7.39493e-06
3.786e-07
1.52024e-08
4.40803e-10
4.47734e-10
3.49597e-10
2.50305e-08
4.14846e-06
4.39032e-05
3.44475e-05
7.16019e-06
3.97268e-07
1.68568e-08
7.30259e-10
8.25688e-10
5.00177e-10
2.47225e-08
3.60751e-06
3.94624e-05
3.01982e-05
7.57103e-06
5.0202e-07
2.05563e-08
1.06363e-09
1.05163e-09
7.52228e-10
2.46461e-08
3.21814e-06
3.54482e-05
2.64639e-05
8.03606e-06
7.14671e-07
3.67512e-08
1.75547e-09
1.41134e-09
1.45276e-09
2.56633e-08
2.94777e-06
3.25246e-05
2.31379e-05
8.81868e-06
9.45095e-07
6.50376e-08
4.31106e-09
1.97762e-09
2.49798e-09
2.624e-08
2.73024e-06
2.94929e-05
2.00703e-05
9.54131e-06
1.33579e-06
1.15672e-07
9.10355e-09
2.95874e-09
3.58027e-09
2.40304e-08
2.49217e-06
2.75045e-05
1.72322e-05
1.05676e-05
1.74173e-06
2.07093e-07
2.29797e-08
4.54884e-09
4.85563e-09
2.34961e-08
2.173e-06
2.49557e-05
1.4536e-05
1.16793e-05
2.39397e-06
3.29039e-07
4.05311e-08
9.23476e-09
6.93167e-09
2.22498e-08
1.88867e-06
2.34066e-05
1.19777e-05
1.21813e-05
3.81874e-06
5.72064e-07
9.16203e-08
1.53781e-08
9.10244e-09
2.69111e-08
1.49893e-06
2.07644e-05
9.51118e-06
1.2701e-05
5.37918e-06
1.03222e-06
1.72374e-07
3.87475e-08
1.74526e-08
2.42136e-08
1.23973e-06
1.88909e-05
7.23825e-06
1.35259e-05
7.20722e-06
1.70018e-06
3.5553e-07
7.29129e-08
2.33313e-08
3.03394e-08
8.55176e-07
1.54956e-05
5.21463e-06
1.42984e-05
9.28427e-06
2.80391e-06
6.98887e-07
1.88118e-07
6.4971e-08
4.57421e-08
9.36256e-07
1.23987e-05
0.310976
1.00375
0.980317
0.980205
0.980116
0.980216
0.980196
0.980365
1.00389
0.311493
0.0627214
0.14351
0.0511924
0.0386771
0.0383941
0.0357414
0.0389333
0.0497391
0.14303
0.0632432
0.0173247
0.0312515
0.013682
0.00720282
0.00703904
0.00612184
0.00726986
0.0128172
0.031399
0.0174738
0.00619517
0.0125443
1.12133e-05
2.23076e-05
1.45769e-05
5.33832e-05
1.94345e-05
1.29131e-05
0.0125608
0.0062583
0.00271735
0.00554282
4.65309e-07
1.44011e-07
1.06361e-07
5.55905e-07
1.02259e-07
2.00968e-07
0.00569515
0.00274465
0.00139234
0.00248018
1.89433e-07
9.54415e-08
2.72638e-07
9.61678e-07
2.75955e-07
1.48482e-07
0.00220854
0.00140638
0.000802502
0.00109688
1.53226e-07
1.31399e-07
1.14728e-07
3.56466e-07
1.03729e-07
1.37101e-07
0.00178583
0.000810513
0.000505215
0.000531727
1.64296e-07
7.65276e-08
1.14161e-07
2.06345e-06
1.18933e-07
1.30635e-07
0.00118453
0.000511169
0.000340832
0.000254969
2.48591e-07
1.93403e-07
2.27794e-07
2.40898e-06
1.02205e-07
1.34803e-07
0.00063711
0.000345173
0.000242733
0.00021213
5.60144e-07
1.22963e-07
7.84838e-08
2.9569e-07
7.86475e-08
1.12255e-07
0.000248525
0.000246186
0.000180597
0.000139848
6.3163e-07
4.5985e-07
2.77316e-07
1.56988e-06
2.26368e-07
3.58424e-07
0.000215675
0.000183323
0.000139096
7.85307e-05
5.31174e-07
3.43501e-07
2.22586e-07
3.7936e-07
1.69871e-07
4.24926e-07
0.000139709
0.000141212
0.000110373
3.79193e-05
1.10467e-06
1.49878e-07
1.15676e-07
3.29239e-07
1.32792e-07
2.58711e-07
7.72863e-05
0.000112571
8.96867e-05
2.11298e-05
7.85405e-07
2.24584e-07
7.97212e-08
1.97455e-07
2.08973e-07
1.06018e-07
3.57679e-05
9.19255e-05
7.43406e-05
1.36775e-05
7.51093e-07
1.00051e-07
6.08561e-08
1.2954e-07
8.81665e-08
1.50205e-07
1.8782e-05
7.65934e-05
6.25998e-05
9.50934e-06
5.79783e-07
9.31788e-08
3.0382e-08
1.06644e-07
8.69581e-08
9.95122e-08
1.08166e-05
6.50543e-05
5.3442e-05
8.66965e-06
5.2243e-07
9.19397e-08
5.92923e-08
7.41733e-08
7.62619e-08
9.28173e-08
7.10362e-06
5.60071e-05
4.60932e-05
8.17808e-06
4.44996e-07
8.66372e-08
4.16823e-08
6.14685e-08
8.07469e-08
7.34051e-08
5.21492e-06
4.90713e-05
4.00895e-05
7.71031e-06
4.09482e-07
8.93912e-08
3.71708e-08
7.03473e-08
7.51579e-08
6.22304e-08
4.25519e-06
4.32671e-05
3.50283e-05
7.5463e-06
4.60907e-07
9.22408e-08
5.44021e-08
6.9199e-08
8.15223e-08
8.04282e-08
3.60503e-06
3.88443e-05
3.06996e-05
7.90248e-06
5.89408e-07
1.05199e-07
5.71817e-08
7.49978e-08
9.90667e-08
8.30958e-08
3.19726e-06
3.48395e-05
2.68718e-05
8.24733e-06
7.92948e-07
1.21813e-07
7.153e-08
8.33873e-08
1.1607e-07
9.47567e-08
2.86221e-06
3.19289e-05
2.34514e-05
9.0333e-06
1.02627e-06
1.79928e-07
1.06431e-07
1.03924e-07
1.43444e-07
1.08467e-07
2.70351e-06
2.89155e-05
2.02686e-05
9.68598e-06
1.43606e-06
2.78774e-07
1.5692e-07
1.36293e-07
1.715e-07
1.41465e-07
2.43366e-06
2.69362e-05
1.73166e-05
1.09301e-05
1.85244e-06
4.18066e-07
2.24675e-07
1.72945e-07
2.1168e-07
1.90731e-07
2.20376e-06
2.44534e-05
1.44628e-05
1.20956e-05
2.685e-06
6.09267e-07
3.09854e-07
2.33291e-07
2.58564e-07
2.47774e-07
1.94726e-06
2.29714e-05
1.17211e-05
1.28519e-05
4.21322e-06
9.64768e-07
4.33358e-07
3.00479e-07
3.19602e-07
3.16238e-07
1.75969e-06
2.04819e-05
8.98955e-06
1.37739e-05
6.26274e-06
1.4826e-06
6.46283e-07
4.22656e-07
4.00574e-07
4.00207e-07
1.4618e-06
1.88249e-05
6.6499e-06
1.53449e-05
8.77196e-06
2.66983e-06
9.68684e-07
5.91796e-07
5.47188e-07
5.5739e-07
1.52317e-06
1.55101e-05
5.11991e-06
1.72092e-05
1.28844e-05
4.6491e-06
1.88529e-06
9.60116e-07
7.43789e-07
7.54643e-07
1.92224e-06
1.29983e-05
0.312211
1.02775
1.00388
1.00349
1.00341
1.00341
1.00349
1.00389
1.02783
0.312684
0.0635184
0.0277867
0.143376
0.13824
0.138073
0.138086
0.138267
0.14307
0.02857
0.0640429
0.017648
0.00099274
0.0328704
0.0305807
0.0300425
0.0299208
0.0300226
0.0312626
0.00100013
0.0177951
0.00630981
0.00022391
0.0132411
0.012368
0.0121836
0.0121032
0.0121444
0.0125564
0.000221016
0.00637888
0.00275264
9.48046e-05
0.00599377
0.00565918
0.00540503
0.00535044
0.0053836
0.00553712
9.29353e-05
0.00278122
0.00139998
6.30359e-05
0.00228012
0.00217662
0.00247387
0.00244989
0.00243764
0.00252358
5.78042e-05
0.00141139
0.00080064
7.12909e-05
0.00191181
0.00184864
0.000969598
0.000938064
0.000996835
0.00101161
5.28999e-05
0.000805309
0.000499938
6.74365e-05
0.00132394
0.00126004
0.000789221
0.000803321
0.000669005
0.00074698
5.00123e-05
0.000503092
0.00033464
4.27827e-05
0.000945433
0.000675689
0.000445382
0.000442589
0.000369004
0.000410351
4.5305e-05
0.000336977
0.000236568
8.5196e-05
0.000577773
0.000288229
0.000163967
0.000186383
0.000146781
0.000151729
3.00664e-05
0.000238566
0.000174692
4.86517e-05
0.000307638
0.000288012
0.000160894
0.000175054
0.000132361
0.000137505
4.04229e-05
0.000176994
0.000133693
4.36699e-05
0.000132541
0.000197079
0.000109501
0.000112933
8.61851e-05
9.41514e-05
3.22157e-05
0.000136298