/*--------------------------------*- C++ -*----------------------------------*\
| =========                 |                                                 |
| \\      /  F ield         | OpenFOAM: The Open Source CFD Toolbox           |
|  \\    /   O peration     | Version:  4.1                                   |
|   \\  /    A nd           | Web:      www.OpenFOAM.org                      |
|    \\/     M anipulation  |                                                 |
\*---------------------------------------------------------------------------*/
FoamFile
{
    version     2.0;
    format      ascii;
    class       volScalarField;
    location    "1600";
    object      k;
}
// * * * * * * * * * * * * * * * * * * * * * * * * * * * * * * * * * * * * * //

dimensions      [0 2 -2 0 0 0 0];

internalField   nonuniform List<scalar> 
12000
(
0.11678
0.114949
0.114602
0.114528
0.114511
0.114511
0.11453
0.114604
0.114908
0.116731
0.0404124
0.0397313
0.0394165
0.0392275
0.0391707
0.0391709
0.0392283
0.0394165
0.0397494
0.0404537
0.0169147
0.0169194
0.0167256
0.016574
0.0165186
0.0165188
0.0165741
0.0167199
0.0169266
0.0169262
0.00837469
0.00852932
0.00843516
0.00833697
0.00829489
0.00829509
0.00833652
0.00842585
0.00852927
0.00838126
0.00475664
0.00490888
0.00487198
0.00481092
0.00478047
0.00478076
0.00481127
0.00486621
0.0049079
0.0047603
0.003006
0.00312934
0.00312055
0.00308195
0.00305919
0.00305963
0.00308268
0.00311776
0.00313037
0.00300941
0.0020593
0.00215753
0.00216148
0.00213515
0.00211819
0.00211835
0.00213627
0.002161
0.002157
0.00206358
0.00149842
0.00157642
0.00158854
0.00157074
0.00155741
0.0015576
0.00157187
0.00158928
0.00157907
0.00150463
0.00114248
0.0012066
0.00122225
0.00120999
0.00119962
0.00120001
0.00121118
0.00122465
0.00120825
0.00115009
0.000903857
0.000957739
0.00097566
0.000967024
0.000958423
0.00095869
0.000968155
0.000977018
0.0009596
0.000912259
0.000736036
0.000781944
0.000801324
0.000794706
0.000787975
0.000788882
0.000796364
0.000803148
0.000786349
0.000745721
0.00061462
0.000658773
0.000674228
0.000669145
0.000664424
0.00066423
0.000670804
0.000676809
0.000659349
0.000624981
0.000522344
0.000554392
0.000578745
0.000573799
0.000570315
0.000571374
0.000576987
0.000581995
0.000564232
0.000534568
0.000451583
0.000483235
0.00050493
0.000501653
0.000498683
0.000499872
0.000504505
0.000509276
0.000491732
0.00046535
0.000395569
0.000427224
0.000446657
0.000444798
0.000442307
0.000443113
0.000447495
0.00045171
0.000434556
0.000411253
0.000350251
0.00038211
0.000399997
0.000398914
0.000396934
0.00039802
0.000401701
0.000405709
0.000389072
0.000368029
0.000312801
0.000344956
0.00036171
0.000361155
0.000359785
0.00036098
0.000364343
0.000368149
0.000352696
0.000333262
0.000281147
0.000313618
0.000330073
0.000329984
0.000329236
0.00033083
0.000333999
0.000337472
0.000323298
0.000304921
0.000253765
0.000286969
0.000303105
0.000303624
0.00030347
0.000305139
0.000308287
0.000312277
0.000299503
0.000282005
0.000229397
0.000263609
0.000280138
0.000281387
0.000281923
0.000284034
0.000287104
0.000291167
0.000279792
0.000263018
0.000207006
0.000242542
0.000259982
0.000262006
0.000262994
0.000265365
0.000268843
0.000273633
0.000263969
0.00024787
0.000185581
0.000223075
0.000242107
0.000245214
0.000247001
0.000250184
0.000253657
0.000258572
0.000250464
0.000235103
0.000164201
0.000204231
0.000225616
0.000230052
0.000232236
0.000235877
0.00024029
0.000246285
0.000240075
0.000225533
0.00014154
0.000184699
0.000209962
0.00021666
0.000219997
0.000224541
0.000229009
0.000235368
0.000230925
0.0002175
0.000116175
0.000162814
0.000193846
0.000203383
0.000207392
0.000212692
0.000218903
0.000227014
0.000224754
0.000212719
8.48485e-05
0.000137328
0.000176426
0.000191042
0.000197466
0.000203618
0.000209701
0.000218979
0.000218886
0.000208886
4.70922e-05
0.000104649
0.000154369
0.000175278
0.000184323
0.000192663
0.000201537
0.000213617
0.000215984
0.000209549
3.05881e-05
6.88846e-05
0.000125755
0.000157542
0.000173289
0.000182663
0.00019147
0.000206424
0.000213635
0.000210722
3.98142e-05
5.79845e-05
8.24121e-05
0.0001176
0.000150057
0.000170119
0.000181668
0.000200657
0.000213381
0.000217284
6.37029e-05
8.29648e-05
8.71926e-05
9.05521e-05
0.000106896
0.00013134
0.000161028
0.000185852
0.000210433
0.000226318
0.114948
0.0313941
0.0284173
0.0284001
0.0284009
0.0284009
0.0284001
0.0284173
0.0313948
0.115006
0.0397297
0.00162412
0.00300366
0.00294744
0.00294657
0.00294666
0.00294726
0.00300121
0.00162642
0.0399304
0.0169172
0.000280797
0.000790288
0.000765347
0.000763964
0.00076335
0.000762983
0.000781578
0.000286025
0.0169985
0.00852688
0.00016907
0.000393638
0.000388991
0.000386437
0.000385103
0.000384642
0.000352434
0.000154519
0.00857456
0.00490634
0.00016269
0.000288007
0.0002899
0.000290202
0.000289311
0.000287325
0.000247416
0.000145402
0.0049302
0.00312657
0.000190717
0.000217171
0.000223154
0.000222435
0.000221645
0.000219856
0.000169611
0.000170066
0.00313859
0.00215466
0.000243436
0.000164541
0.000144951
0.000160543
0.000148526
0.000148526
0.0001353
0.000191613
0.00215971
0.00157339
0.000230583
0.000115434
0.000119815
0.000131297
0.000121215
0.000122724
0.000102845
0.000204073
0.00158022
0.00120343
0.000259087
7.26678e-05
9.69134e-05
0.00010102
9.53825e-05
8.98958e-05
8.03201e-05
0.000183933
0.00121011
0.00095429
0.000254902
8.72255e-05
7.86141e-05
8.47682e-05
7.86739e-05
6.95681e-05
6.10163e-05
0.000211588
0.000961674
0.000778221
0.000243172
6.18164e-05
7.2181e-05
7.37671e-05
7.17661e-05
6.81526e-05
7.60722e-05
0.000192703
0.000788823
0.000654646
0.000226078
5.06798e-05
5.74075e-05
6.65662e-05
5.20539e-05
4.89103e-05
5.70908e-05
0.000161735
0.000662854
0.000549834
0.000224449
4.71859e-05
5.64231e-05
5.6808e-05
4.75024e-05
4.12524e-05
3.90796e-05
0.000157478
0.000568035
0.000478137
0.000209242
4.07163e-05
4.1978e-05
4.05729e-05
4.36955e-05
3.30619e-05
4.11934e-05
0.000139068
0.00049587
0.000421515
0.00019237
3.95665e-05
4.2944e-05
3.75347e-05
3.79211e-05
3.18202e-05
3.34478e-05
0.000129512
0.000438797
0.00037566
0.000176646
4.0072e-05
3.93066e-05
3.12447e-05
3.46133e-05
3.03896e-05
3.44113e-05
0.000124577
0.000393168
0.000337665
0.000164875
4.41789e-05
3.37539e-05
2.81624e-05
3.43518e-05
3.08477e-05
3.2499e-05
0.000120355
0.000355886
0.000305311
0.00014642
4.77307e-05
3.09685e-05
2.78499e-05
3.3993e-05
3.26418e-05
3.17579e-05
0.000113614
0.00032602
0.000277596
0.000145616
5.32612e-05
3.17073e-05
2.98451e-05
3.44192e-05
3.37656e-05
3.24941e-05
0.000108107
0.000300973
0.000253037
0.000139788
5.89264e-05
3.30583e-05
3.12753e-05
3.47617e-05
3.47081e-05
3.51907e-05
0.000103716
0.000280851
0.000230851
0.000138205
6.3877e-05
3.74813e-05
3.34513e-05
3.55574e-05
3.67724e-05
3.89218e-05
0.000100802
0.000263116
0.000210329
0.00014543
7.0562e-05
4.37318e-05
3.67665e-05
3.82066e-05
4.01388e-05
4.25788e-05
9.65849e-05
0.000248969
0.000191021
0.000157072
7.62455e-05
5.00407e-05
4.10209e-05
4.03103e-05
4.33042e-05
4.56022e-05
9.27493e-05
0.00023551
0.000171618
0.000162833
8.90865e-05
5.7648e-05
4.76183e-05
4.44666e-05
4.71005e-05
4.87687e-05
8.83688e-05
0.00022517
0.000151399
0.00017003
0.000100927
6.41539e-05
5.29822e-05
4.92915e-05
5.14652e-05
5.2291e-05
8.52116e-05
0.0002141
0.000129339
0.000179313
0.000122189
7.48629e-05
6.04932e-05
5.45499e-05
5.55251e-05
5.56659e-05
8.14384e-05
0.000206067
0.000104132
0.000188415
0.000138923
8.57753e-05
6.74453e-05
6.11566e-05
6.14406e-05
6.16327e-05
8.1093e-05
0.00019605
7.65858e-05
0.000204136
0.00016851
0.000106981
7.94819e-05
6.89689e-05
6.79945e-05
6.76257e-05
8.49843e-05
0.000187608
6.01066e-05
0.000228805
0.000207097
0.000136552
9.85644e-05
8.30297e-05
8.01999e-05
8.13552e-05
9.10436e-05
0.000179403
6.22944e-05
0.000256237
0.000259618
0.000201615
0.000130877
0.000101175
9.56165e-05
9.64003e-05
0.000133344
0.000175016
0.114601
0.028418
0.0255522
0.025544
0.0255428
0.0255427
0.0255439
0.0255522
0.0284174
0.11473
0.0394152
0.00300523
0.000654921
0.000552784
0.000552262
0.000555654
0.000553252
0.000649752
0.00299565
0.0396318
0.0167235
0.000791888
1.90853e-05
1.67402e-05
1.66795e-05
1.67921e-05
1.67924e-05
1.92514e-05
0.000790638
0.016819
0.00843237
0.000391411
1.54884e-08
1.1408e-08
1.14893e-08
1.25216e-08
1.16428e-08
2.619e-08
0.000395851
0.00849277
0.00486979
0.000300273
8.89991e-09
5.70807e-09
6.13139e-09
1.23988e-09
5.72879e-09
3.25322e-09
0.000288233
0.00490657
0.00311703
0.000195306
1.00286e-08
3.28496e-09
4.48562e-09
3.55329e-09
6.57699e-09
1.05944e-08
0.000214665
0.00313995
0.0021583
0.000158895
1.13321e-08
6.22524e-09
3.84961e-09
8.59174e-09
4.09414e-09
1.91673e-08
0.000162746
0.00217341
0.00158527
0.000126892
5.15842e-08
1.59097e-08
4.7216e-09
3.5939e-08
4.5014e-09
1.3231e-07
0.00012875
0.00159756
0.00121971
0.00010043
4.6652e-08
1.07348e-07
1.20697e-08
2.9925e-08
7.2648e-09
7.7024e-08
0.000101885
0.00122953
0.000972086
9.02761e-05
6.1208e-08
6.48275e-08
5.78453e-08
4.19029e-08
1.12349e-08
1.03918e-07
8.03584e-05
0.000981551
0.000797838
7.26723e-05
1.78987e-07
1.0037e-07
3.31872e-08
9.13992e-08
1.86256e-08
3.48418e-07
7.64488e-05
0.0008062
0.000670047
4.38099e-05
1.76497e-07
1.85453e-07
4.91706e-08
2.15666e-07
1.71609e-08
3.29802e-07
6.15475e-05
0.000678718
0.000574522
5.50712e-05
2.78476e-07
3.17706e-07
9.4143e-08
2.0913e-07
2.04182e-08
3.22883e-07
5.40327e-05
0.000582808
0.000500159
4.67097e-05
6.92077e-07
3.37204e-07
8.16401e-08
2.42816e-07
3.48898e-08
2.68787e-07
4.9314e-05
0.000509227
0.000441181
4.69144e-05
6.31826e-07
3.14324e-07
1.36006e-07
1.71078e-07
9.49178e-08
2.13229e-07
4.09793e-05
0.000450583
0.000393535
5.08107e-05
1.05375e-06
3.31743e-07
9.8298e-08
3.2578e-07
1.00981e-07
3.01489e-07
3.58436e-05
0.000404046
0.000354196
5.79489e-05
1.28113e-06
2.37864e-07
2.45962e-07
3.73472e-07
2.38231e-07
3.36073e-07
3.42982e-05
0.000365406
0.000321119
6.43608e-05
2.07386e-06
4.31168e-07
2.54107e-07
3.4374e-07
2.56603e-07
3.31091e-07
3.46705e-05
0.000334475
0.000292677
7.3134e-05
3.30936e-06
5.12654e-07
2.41418e-07
3.61389e-07
3.60826e-07
4.24681e-07
3.39054e-05
0.000307657
0.000267704
7.96226e-05
4.69389e-06
6.43038e-07
3.96083e-07
4.28243e-07
5.36661e-07
5.57541e-07
3.28523e-05
0.000286315
0.00024541
8.8226e-05
7.55287e-06
1.1799e-06
5.35447e-07
5.15334e-07
8.18716e-07
8.9998e-07
3.18751e-05
0.000266389
0.000224816
9.42617e-05
9.83678e-06
1.6924e-06
8.08332e-07
7.76594e-07
1.1508e-06
1.33076e-06
3.00048e-05
0.000251153
0.000205544
0.000104798
1.46399e-05
2.82979e-06
1.27181e-06
1.08393e-06
1.52602e-06
1.82494e-06
2.90741e-05
0.000235071
0.000186748
0.000112851
1.87287e-05
3.91024e-06
1.85488e-06
1.56782e-06
1.89296e-06
2.22932e-06
2.44896e-05
0.000223983
0.000168287
0.00012763
2.64166e-05
5.98981e-06
2.68576e-06
2.1064e-06
2.37286e-06
2.77324e-06
2.29721e-05
0.000209765
0.000149572
0.000138077
3.79132e-05
8.51379e-06
3.84876e-06
2.83942e-06
2.95456e-06
3.19438e-06
2.38913e-05
0.000201299
0.000130263
0.000147059
5.9403e-05
1.3886e-05
5.47943e-06
3.81773e-06
3.7543e-06
3.98453e-06
2.20587e-05
0.000186681
0.000109854
0.000158656
8.27392e-05
2.1709e-05
8.28938e-06
5.24516e-06
4.81438e-06
4.69537e-06
1.98761e-05
0.000175803
9.00525e-05
0.000174755
0.000116402
3.70816e-05
1.3262e-05
7.52776e-06
6.54077e-06
6.57086e-06
1.73112e-05
0.000156007
7.52102e-05
0.000195181
0.000157172
6.78806e-05
2.59204e-05
1.21743e-05
8.98454e-06
8.29695e-06
2.00674e-05
0.00013658
0.114528
0.0284008
0.0255437
0.0255357
0.025534
0.0255347
0.0255355
0.0255441
0.0284003
0.114659
0.0392261
0.00294914
0.000559354
0.000457951
0.00046769
0.000451382
0.000459288
0.000546617
0.00293947
0.0394451
0.0165717
0.00076638
1.69462e-05
1.27609e-05
1.31799e-05
1.24908e-05
1.28421e-05
1.65382e-05
0.000764522
0.0166668
0.00833422
0.000388961
1.12722e-08
8.00915e-09
7.16541e-09
8.91701e-10
8.36023e-09
1.21786e-08
0.000391013
0.00839284
0.00480794
0.000290986
6.07627e-09
8.50921e-15
7.15094e-15
7.25548e-14
7.90594e-15
4.57236e-09
0.000289566
0.00484573
0.00307877
0.000224465
6.63692e-09
7.29842e-14
2.34451e-14
1.33634e-15
7.23154e-14
6.75939e-09
0.000222646
0.0031023
0.00213178
0.000146641
8.6505e-09
2.03702e-14
4.22773e-14
6.35607e-15
9.38345e-14
5.62474e-09
0.000144094
0.00214919
0.00156696
0.000122045
1.65768e-08
1.19951e-13
9.33353e-15
9.71317e-14
3.18753e-13
1.30259e-08
0.000117915
0.00158042
0.00120627
9.74133e-05
2.15749e-08
7.45474e-13
3.31701e-14
1.92319e-12
3.31663e-13
1.17907e-08
8.33202e-05
0.00121781
0.000962291
8.35789e-05
4.73796e-08
7.32816e-13
1.5028e-13
8.30555e-12
3.05489e-13
1.24098e-08
5.06778e-05
0.000973298
0.000790203
6.64032e-05
1.71236e-07
2.74531e-12
2.69447e-13
8.46273e-12
4.69884e-13
2.70167e-08
5.71585e-05
0.000801303
0.000663656
4.41094e-05
3.22621e-07
1.27705e-11
4.68369e-13
1.22605e-10
5.69239e-13
6.55542e-08
4.32017e-05
0.000676004
0.000569082
4.89519e-05
2.78957e-07
2.59102e-11
1.79344e-12
1.40956e-10
5.43101e-13
5.28982e-08
3.76215e-05
0.00058188
0.00049554
4.20842e-05
5.54149e-07
1.14131e-10
1.84235e-12
2.36803e-10
9.73759e-13
5.44553e-08
3.46055e-05
0.000509777
0.000437225
4.2437e-05
5.00899e-07
4.68715e-10
5.04653e-12
4.81899e-10
2.17597e-12
6.10583e-08
2.98814e-05
0.000452227
0.000389772
4.50674e-05
7.82643e-07
2.53627e-09
1.11275e-11
6.06212e-10
6.11053e-12
7.61288e-08
2.87626e-05
0.000406343
0.000350737
5.14394e-05
9.93985e-07
1.16185e-08
4.67105e-11
6.3812e-10
2.62822e-11
1.16188e-07
2.87968e-05
0.000368158
0.000317854
5.7908e-05
1.46176e-06
1.39266e-08
1.60878e-10
6.33181e-10
9.50751e-11
1.81204e-07
2.9951e-05
0.000337431
0.000289661
6.40996e-05
2.17772e-06
4.20895e-08
8.70905e-10
1.05685e-09
4.33929e-10
1.96147e-07
2.93003e-05
0.000310587
0.000264812
7.22211e-05
3.41945e-06
7.83017e-08
2.38769e-09
1.31949e-09
1.33838e-09
2.82694e-07
2.92673e-05
0.00028927
0.000242604
8.03227e-05
5.81278e-06
1.77717e-07
4.53307e-09
1.11967e-09
2.50445e-09
2.64454e-07
2.72067e-05
0.000269045
0.000222194
8.91586e-05
8.31629e-06
4.11165e-07
1.32801e-08
3.65591e-09
4.97934e-09
3.02215e-07
2.63735e-05
0.000253849
0.000203213
9.95564e-05
1.2643e-05
8.11194e-07
3.8808e-08
4.27251e-09
8.58368e-09
2.9846e-07
2.44791e-05
0.000237485
0.000184823
0.000108736
1.76711e-05
1.75096e-06
1.00992e-07
1.7108e-08
1.52881e-08
2.91527e-07
2.2749e-05
0.000226475
0.000166994
0.000123733
2.42e-05
2.90702e-06
2.7432e-07
2.80325e-08
2.68297e-08
2.89235e-07
2.08039e-05
0.000211977
0.00014917
0.000133688
3.60464e-05
5.48466e-06
6.28096e-07
1.08808e-07
4.19432e-08
3.76279e-07
2.16743e-05
0.000203403
0.000131103
0.000141431
5.3949e-05
8.9874e-06
1.39026e-06
1.90667e-07
8.77948e-08
2.67315e-07
1.91945e-05
0.000188146
0.000112485
0.000149144
7.37462e-05
1.64928e-05
2.89597e-06
6.06412e-07
1.34045e-07
2.71301e-07
1.59726e-05
0.000176542
9.36385e-05
0.000159592
9.57526e-05
2.51381e-05
5.68342e-06
1.16113e-06
3.72466e-07
3.23243e-07
1.1536e-05
0.000155281
7.49623e-05
0.000169493
0.000123075
4.13576e-05
1.09271e-05
2.95856e-06
7.7829e-07
5.23084e-07
9.9672e-06
0.000133282
0.11451
0.0284016
0.0255428
0.0255348
0.0255334
0.0255334
0.0255343
0.0255428
0.0284011
0.114641
0.0391691
0.00294829
0.000554681
0.000448916
0.000451777
0.000452158
0.000459049
0.000548658
0.00293862
0.0393876
0.016516
0.000764756
1.68106e-05
1.22289e-05
1.24782e-05
1.23212e-05
1.27992e-05
1.67198e-05
0.0007633
0.0166098
0.0082918
0.000386314
1.32898e-08
1.15261e-07
1.19578e-09
1.14548e-08
8.70448e-09
1.40988e-08
0.000388472
0.00834866
0.00477707
0.0002907
1.22828e-09
4.5539e-11
2.95467e-14
8.4974e-15
1.07531e-14
7.61423e-10
0.000289744
0.00481369
0.00305572
0.000224245
4.38921e-09
1.70745e-13
1e-15
1e-15
1e-15
1.89179e-09
0.000222278
0.0030788
0.00211407
0.000148045
1.46015e-08
2.61023e-13
1e-15
1e-15
5.03914e-14
2.97532e-09
0.000147625
0.00213142
0.00155311
0.000118761
2.01007e-08
2.74486e-12
1e-15
1e-15
1.49534e-13
4.29173e-09
0.000104732
0.00156701
0.00119516
9.2747e-05
2.41628e-08
1.27916e-12
1e-15
1e-15
1.73464e-13
7.32069e-09
0.000105879
0.0012066
0.000953555
7.90238e-05
9.66924e-08
1.39931e-11
3.59568e-15
1.66559e-15
3.64434e-13
7.72487e-09
7.43563e-05
0.000964052
0.000782752
6.9893e-05
1.14901e-07
9.14186e-12
3.47448e-15
2.37678e-15
2.86324e-13
7.58727e-09
7.03729e-05
0.000794682
0.000658491
6.39617e-05
1.52922e-07
2.06312e-11
1.54886e-15
4.31169e-14
2.83282e-12
4.53366e-08
6.17266e-05
0.000669681
0.000563897
5.91579e-05
4.23942e-07
1.27532e-10
8.84925e-15
3.44949e-14
1.07922e-12
2.02903e-08
4.49343e-05
0.000576358
0.000491101
4.61998e-05
2.56619e-07
8.63787e-10
9.30649e-14
2.45437e-14
1.38931e-12
1.66332e-08
4.14862e-05
0.000504911
0.000433709
4.64646e-05
8.87567e-07
7.25513e-10
1.14557e-12
1.47436e-13
2.35159e-12
2.16241e-08
3.48101e-05
0.00044787
0.000386874
4.1563e-05
7.67882e-07
5.38215e-09
2.05936e-11
7.85123e-13
3.16671e-11
6.6552e-08
3.55053e-05
0.000402312
0.000348229
4.35587e-05
8.85836e-07
6.92406e-09
3.90462e-11
7.10651e-13
2.38102e-11
5.43952e-08
3.46105e-05
0.000364634
0.000315701
4.74151e-05
1.14038e-06
9.08377e-09
8.78974e-10
1.97067e-12
1.21945e-10
1.4425e-07
3.29488e-05
0.000334194
0.000287695
5.46433e-05
1.65073e-06
3.26102e-08
6.53547e-10
1.28205e-11
1.73017e-10
1.40703e-07
3.18882e-05
0.000307507
0.000263057
6.11645e-05
2.78629e-06
6.02633e-08
6.42513e-10
1.02397e-11
3.25413e-10
1.55315e-07
3.09564e-05
0.0002865
0.000241051
7.10064e-05
4.0551e-06
1.3112e-07
5.10576e-09
1.22436e-10
4.98876e-10
1.76304e-07
2.96373e-05
0.00026645
0.000220783
7.7969e-05
6.835e-06
3.1038e-07
7.25404e-09
2.26173e-10
5.80821e-10
1.97871e-07
2.74615e-05
0.000251366
0.000201902
9.06126e-05
9.48309e-06
5.78915e-07
3.49641e-08
3.00586e-10
9.99266e-10
2.07193e-07
2.58201e-05
0.000235155
0.000183614
9.85706e-05
1.47022e-05
1.23827e-06
6.6924e-08
6.87689e-09
1.89978e-09
2.13598e-07
2.31699e-05
0.00022427
0.000165765
0.000115316
1.96141e-05
2.18355e-06
2.1953e-07
1.03022e-08
2.99477e-09
1.88373e-07
2.08408e-05
0.000209889
0.000147907
0.000127562
2.97398e-05
3.94823e-06
3.97818e-07
5.91065e-08
6.65737e-09
1.78771e-07
1.95355e-05
0.000201261
0.000129724
0.000136798
4.77166e-05
7.13824e-06
1.05378e-06
1.00337e-07
1.98903e-08
2.27295e-07
1.84024e-05
0.000186902
0.000110659
0.000145066
6.81071e-05
1.39205e-05
2.17787e-06
3.99393e-07
4.7203e-08
1.20684e-07
1.64187e-05
0.000174853
9.11718e-05
0.000157213
9.17704e-05
2.26035e-05
4.756e-06
8.30436e-07
1.12614e-07
1.60675e-07
1.13389e-05
0.000154428
7.07941e-05
0.00016566
0.000117461
3.85555e-05
9.54593e-06
2.39545e-06
6.58333e-07
2.52668e-07
1.04608e-05
0.000128926
0.11451
0.0284016
0.0255435
0.0255347
0.0255335
0.0255338
0.025535
0.0255429
0.0284011
0.114641
0.0391691
0.0029483
0.000535317
0.000450546
0.000451949
0.000443489
0.000444685
0.000546443
0.00293864
0.0393873
0.0165159
0.000764142
1.59733e-05
1.24668e-05
1.24111e-05
1.20026e-05
1.21634e-05
1.66327e-05
0.000762506
0.0166092
0.0082916
0.00038468
5.62142e-09
6.33546e-09
4.56977e-09
1.19832e-08
4.50326e-09
1.58653e-08
0.000387414
0.0083479
0.00477708
0.000290277
7.81252e-10
7.88766e-15
3.99716e-13
8.43728e-12
1.14793e-13
8.4587e-10
0.000288098
0.00481311
0.00305548
0.000222332
2.96659e-09
1.13512e-14
1.21491e-15
1.06038e-14
2.40353e-14
1.51223e-09
0.000222826
0.00307843
0.00211461
0.000171842
8.74484e-09
5.40604e-14
1e-15
1e-15
5.58884e-14
1.90148e-09
0.000170531
0.00213151
0.00155324
0.000139818
2.34256e-08
1.57418e-14
1e-15
1e-15
1.47e-13
3.49422e-09
0.00013744
0.0015669
0.00119538
0.000108786
6.32101e-08
2.25684e-12
1e-15
1e-15
6.08278e-14
2.23183e-09
9.46634e-05
0.00120694
0.000952927
7.35103e-05
2.94375e-07
7.69344e-11
1.54523e-15
1e-15
2.11887e-13
4.14812e-09
7.4661e-05
0.000965103
0.000782482
8.52349e-05
3.64429e-07
2.06189e-10
4.57118e-14
4.99865e-15
2.14782e-13
3.7514e-09
5.26283e-05
0.000794019
0.000657561
5.88563e-05
4.22988e-07
2.4835e-10
6.96385e-14
7.07823e-14
3.6336e-13
1.11325e-08
6.26416e-05
0.000670024
0.000564003
5.46636e-05
4.83632e-07
6.83603e-10
1.77662e-12
9.32014e-14
4.85106e-13
1.02093e-08
5.62234e-05
0.000575927
0.000491528
5.13089e-05
6.39938e-07
3.20171e-09
1.06082e-11
3.51648e-13
4.81699e-13
6.77593e-09
4.21754e-05
0.000504824
0.00043375
4.33683e-05
6.12672e-07
5.79324e-09
2.94967e-11
4.17438e-13
7.32646e-13
9.98939e-09
3.01624e-05
0.000447847
0.000386897
4.28501e-05
6.70106e-07
4.96915e-09
6.2331e-11
4.87596e-12
1.63943e-12
1.84871e-08
2.83497e-05
0.000402415
0.000348243
4.72635e-05
9.7773e-07
1.55129e-08
3.39316e-11
7.74734e-12
9.69962e-12
4.43131e-08
2.63221e-05
0.000364555
0.00031572
5.26292e-05
1.43845e-06
1.94127e-08
6.08476e-10
2.32064e-11
1.76163e-11
5.0455e-08
2.51174e-05
0.000333947
0.000287694
6.02339e-05
2.10809e-06
4.42469e-08
8.92512e-10
1.02865e-11
4.13973e-11
5.70663e-08
2.45977e-05
0.000307251
0.000263064
6.74902e-05
3.57691e-06
8.89575e-08
1.14595e-09
1.66724e-10
1.42247e-10
7.49715e-08
2.44375e-05
0.000285907
0.000241081
7.65293e-05
5.16309e-06
1.76788e-07
7.01097e-09
1.20018e-11
2.06136e-10
1.00839e-07
2.37769e-05
0.000265723
0.000220839
8.42209e-05
7.92322e-06
4.08373e-07
1.28845e-08
9.71791e-10
7.39646e-10
1.07568e-07
2.25586e-05
0.000250628
0.000202023
9.60342e-05
1.11532e-05
7.13238e-07
4.72228e-08
1.24604e-09
9.00822e-10
1.28007e-07
2.13822e-05
0.000234112
0.00018379
0.000104493
1.61149e-05
1.49207e-06
8.91472e-08
8.86546e-09
1.59492e-09
1.3078e-07
1.99643e-05
0.000223085
0.000166053
0.00012041
2.17073e-05
2.43146e-06
2.5314e-07
1.40524e-08
3.35616e-09
1.24326e-07
1.58984e-05
0.000208185
0.00014825
0.000131021
3.30421e-05
4.45013e-06
4.57657e-07
6.31847e-08
7.10946e-09
1.11057e-07
1.42129e-05
0.00019917
0.000130135
0.000139878
5.12583e-05
7.90764e-06
1.15446e-06
1.12891e-07
8.81279e-09
1.04544e-07
1.455e-05
0.000184531
0.000111173
0.000147897
7.20983e-05
1.52172e-05
2.39965e-06
4.26324e-07
8.4498e-08
1.33443e-07
1.34053e-05
0.000174105
9.1851e-05
0.000159708
9.55065e-05
2.44269e-05
5.13167e-06
8.85999e-07
1.51313e-07
1.59731e-07
1.01406e-05
0.000149863
7.16861e-05
0.000168248
0.000122083
4.0997e-05
1.03757e-05
2.63984e-06
6.47899e-07
3.04877e-07
8.64333e-06
0.000135718
0.114529
0.0284008
0.0255441
0.025536
0.0255351
0.0255349
0.0255363
0.0255439
0.0284003
0.114659
0.0392264
0.00294894
0.000549817
0.000448762
0.000443804
0.000446693
0.000443638
0.000550134
0.00293931
0.0394442
0.0165711
0.000763874
1.66484e-05
1.24444e-05
1.21002e-05
1.21347e-05
1.23384e-05
1.67725e-05
0.000762168
0.0166647
0.00833282
0.000384413
1.21807e-08
3.78857e-09
1.29222e-08
4.07007e-08
1.42266e-09
1.35169e-08
0.000386868
0.00838918
0.00480724
0.000288328
1.28955e-09
4.72142e-13
7.74234e-14
3.14669e-11
8.92455e-14
4.58682e-10
0.000287635
0.0048429
0.00307841
0.000220233
5.04263e-09
1.88872e-15
1.18407e-14
6.1651e-13
2.05176e-14
2.41942e-09
0.000219526
0.00310096
0.00213154
0.000145324
1.86e-08
4.44293e-14
2.2846e-13
6.24782e-13
2.45055e-13
2.93863e-09
0.000142507
0.00214866
0.00156713
0.000115016
4.01774e-08
2.09501e-13
5.63552e-14
7.56358e-12
1.36229e-13
3.4876e-09
0.000115552
0.00158025
0.00120528
8.51239e-05
8.6785e-08
8.28937e-13
5.65872e-13
3.33576e-12
3.96155e-13
3.00189e-09
8.15613e-05
0.00121781
0.00096166
8.83601e-05
1.60223e-07
3.995e-12
3.54627e-13
4.39502e-12
5.16261e-13
3.24354e-09
5.03571e-05
0.000973391
0.000789181
8.78608e-05
4.65581e-07
1.47666e-11
7.10748e-13
2.99353e-11
7.67196e-13
7.35214e-09
5.50971e-05
0.000801299
0.000663282
6.30211e-05
6.18935e-07
5.45191e-11
3.03715e-12
3.04338e-10
1.42934e-12
1.92137e-08
4.38312e-05
0.000675931
0.000569011
6.04685e-05
4.35235e-07
1.09382e-10
5.80325e-12
1.94356e-10
2.45688e-12
1.02578e-08
2.8895e-05
0.000581838
0.000495695
5.04513e-05
7.5081e-07
2.75745e-09
2.26124e-11
3.18241e-10
8.04365e-12
1.79013e-08
3.22577e-05
0.000509603
0.000437281
4.5505e-05
5.96019e-07
4.48615e-09
1.31452e-10
2.27315e-10
1.82303e-11
2.28144e-08
2.95544e-05
0.000451902
0.000389852
4.40362e-05
8.48591e-07
1.06972e-08
7.18368e-11
5.32577e-10
2.16198e-10
1.05475e-07
3.06032e-05
0.000406146
0.00035067
4.88861e-05
9.84601e-07
8.97969e-09
7.38613e-10
1.74255e-09
6.04744e-10
1.38018e-07
3.15423e-05
0.000367933
0.000317665
5.47986e-05
1.39031e-06
3.46036e-08
1.06184e-09
4.19146e-09
1.17235e-09
1.76941e-07
3.32816e-05
0.000337316
0.000289268
6.43657e-05
2.10751e-06
4.2049e-08
2.1624e-09
8.51898e-09
3.56849e-09
2.13955e-07
3.52138e-05
0.000310727
0.000264334
7.2261e-05
3.49211e-06
1.01528e-07
4.66651e-09
1.17436e-08
6.3045e-09
2.73097e-07
3.31123e-05
0.000289404
0.000242122
8.28841e-05
5.58231e-06
1.85432e-07
8.41833e-09
1.64203e-08
1.55841e-08
3.11418e-07
3.26277e-05
0.000269429
0.000221727
9.02978e-05
8.57017e-06
4.42131e-07
2.65744e-08
2.28494e-08
2.9034e-08
3.67473e-07
3.48887e-05
0.000254403
0.000202736
0.000101622
1.21719e-05
8.2329e-07
5.75772e-08
3.11588e-08
4.21234e-08
4.28642e-07
2.91208e-05
0.000238338
0.000184396
0.00011011
1.75511e-05
1.65141e-06
1.45358e-07
4.35865e-08
5.68972e-08
4.13561e-07
3.071e-05
0.000227501
0.000166575
0.000124018
2.33194e-05
2.89926e-06
3.049e-07
7.75871e-08
7.86947e-08
4.20494e-07
2.89138e-05
0.00021322
0.000148711
0.000133317
3.47332e-05
4.83616e-06
6.7695e-07
1.25511e-07
1.04478e-07
4.06396e-07
2.56059e-05
0.000204302
0.000130706
0.000140718
5.16782e-05
8.58797e-06
1.28579e-06
2.8906e-07
1.59333e-07
4.26951e-07
2.09915e-05
0.000188623
0.000112082
0.000147682
7.16389e-05
1.50131e-05
2.79635e-06
5.344e-07
2.29808e-07
4.21889e-07
1.68333e-05
0.000177099
9.34266e-05
0.000158704
9.41047e-05
2.4427e-05
5.36435e-06
1.32565e-06
4.73253e-07
4.66831e-07
1.17151e-05
0.000155186
7.50811e-05
0.000168417
0.000121703
4.01429e-05
1.07098e-05
2.81159e-06
9.31018e-07
7.4894e-07
1.02625e-05
0.000133751
0.114604
0.0284179
0.0255524
0.0255439
0.0255428
0.0255437
0.0255437
0.0255525
0.0284175
0.114731
0.0394147
0.00300303
0.000647024
0.000551221
0.000548636
0.000527799
0.000553274
0.00063692
0.00299311
0.039633
0.016717
0.000783019
1.98553e-05
1.68365e-05
1.67044e-05
1.54687e-05
1.69492e-05
1.99948e-05
0.000780553
0.0168128
0.00842203
0.000352384
1.0586e-08
1.80203e-08
1.48275e-08
2.6678e-08
1.69893e-08
1.16644e-08
0.000352811
0.00847915
0.00486196
0.000245565
5.52991e-09
1.16655e-09
5.81988e-10
4.12317e-09
6.36085e-10
1.60038e-09
0.000247273
0.00489448
0.00311324
0.000171555
3.03235e-09
1.59206e-09
4.10422e-09
8.19714e-09
3.56394e-09
2.2302e-09
0.000169561
0.00313413
0.00215615
0.000133201
3.87798e-09
3.33617e-09
5.16869e-09
9.49057e-09
4.52113e-09
3.79728e-09
0.000132626
0.00217047
0.0015838
9.01889e-05
7.317e-09
2.68147e-09
4.19802e-09
4.48525e-08
6.30336e-09
4.78847e-09
8.75785e-05
0.00159621
0.00121826
7.74949e-05
1.2246e-08
1.08394e-08
1.65476e-08
6.09883e-08
8.62106e-09
6.66999e-09
7.14442e-05
0.00122859
0.000971554
7.46166e-05
3.09038e-08
1.31776e-08
1.18692e-08
1.03563e-07
1.39233e-08
1.19739e-08
5.53453e-05
0.000980748
0.000797728
6.11475e-05
4.99112e-08
2.72241e-08
2.57208e-08
2.13974e-07
2.80299e-08
3.02249e-08
4.81118e-05
0.000805737
0.000670283
5.814e-05
1.46811e-07
3.27477e-08
3.31815e-08
2.28658e-07
3.27807e-08
9.2442e-08
4.96515e-05
0.000677063
0.0005745
5.39507e-05
4.28641e-07
2.60849e-08
2.7661e-08
1.97736e-07
5.47591e-08
1.15832e-07
4.03634e-05
0.000582103
0.000500265
5.27905e-05
3.36479e-07
8.256e-08
4.76431e-08
1.86787e-07
1.47535e-07
1.26898e-07
3.69773e-05
0.000508556
0.000441434
5.19254e-05
9.47705e-07
1.42867e-07
9.71216e-08
1.56347e-07
1.20142e-07
1.88938e-07
3.3749e-05
0.000450307
0.000393638
5.09024e-05
9.36187e-07
9.58241e-08
9.36745e-08
2.61569e-07
3.68064e-07
3.20302e-07
3.26235e-05
0.000403861
0.000354244
5.44503e-05
1.37396e-06
3.48179e-07
1.58206e-07
3.28776e-07
4.29429e-07
3.69376e-07
3.27677e-05
0.000365491
0.000320976
6.02462e-05
1.70256e-06
3.63529e-07
1.89001e-07
5.91647e-07
6.41894e-07
3.5903e-07
3.22402e-05
0.000334657
0.000292461
6.74681e-05
3.12194e-06
4.04033e-07
2.94852e-07
8.70341e-07
6.80707e-07
5.66236e-07
3.23865e-05
0.000307718
0.000267297
7.34449e-05
4.24218e-06
5.78016e-07
3.98723e-07
1.11756e-06
1.0299e-06
6.71098e-07
3.09612e-05
0.000286373
0.000244795
8.29799e-05
6.8859e-06
7.85374e-07
4.97181e-07
1.30681e-06
1.52847e-06
1.03112e-06
3.03325e-05
0.000266336
0.000223999
9.00684e-05
9.40789e-06
1.40784e-06
9.78127e-07
1.61544e-06
2.11744e-06
1.61594e-06
2.9707e-05
0.000251287
0.000204563
0.000101721
1.36132e-05
2.45376e-06
1.55357e-06
1.87566e-06
2.6182e-06
2.3048e-06
2.80131e-05
0.000235217
0.000185608
0.000111316
1.8688e-05
3.93085e-06
2.43254e-06
2.45001e-06
3.15323e-06
3.01509e-06
2.66518e-05
0.000224356
0.000167118
0.000127313
2.58151e-05
6.15607e-06
3.43809e-06
2.99111e-06
3.65855e-06
3.74686e-06
2.5424e-05
0.000210349
0.000148212
0.000137571
3.84503e-05
8.79272e-06
4.75547e-06
3.80674e-06
4.17731e-06
4.34442e-06
2.56682e-05
0.000201762
0.000128833
0.000147322
5.87853e-05
1.46113e-05
6.66694e-06
4.87385e-06
5.07683e-06
5.18653e-06
2.402e-05
0.000186908
0.000107946
0.000158118
8.10574e-05
2.22251e-05
9.68957e-06
6.65917e-06
6.142e-06
6.22692e-06
2.10926e-05
0.000176686
8.82927e-05
0.000175581
0.000115096
3.69472e-05
1.50675e-05
9.09998e-06
8.10096e-06
8.15644e-06
1.92437e-05
0.000155283
7.41691e-05
0.000195419
0.000156543
6.63441e-05
2.66332e-05
1.43114e-05
1.04587e-05
1.06082e-05
2.26098e-05
0.000138029
0.114907
0.0313958
0.028418
0.0284009
0.0284017
0.0284017
0.0284009
0.0284181
0.0313942
0.115023
0.0397479
0.00163
0.00299728
0.00294118
0.00294028
0.00294038
0.00294102
0.00299463
0.00164651
0.0399664
0.0169243
0.000286943
0.000791932
0.000765572
0.000764044
0.000763672
0.00076312
0.000781436
0.000286619
0.0170183
0.00852561
0.00015285
0.000393152
0.000391279
0.000388776
0.000387306
0.000387037
0.000354057
0.000152041
0.00858771
0.00490396
0.000147889
0.000298801
0.00029065
0.000289933
0.000290161
0.0002882
0.000245085
0.000141253
0.00493786
0.00312461
0.000164832
0.000192286
0.000223895
0.000225067
0.000222224
0.000221269
0.000179346
0.000142034
0.00314156
0.00215281
0.000206831
0.000158307
0.00017839
0.000174816
0.00016509
0.000145526
0.000138124
0.000168416
0.00216117
0.00157275
0.000203354
0.00012007
0.00011137
0.000142198
0.000133905
0.00011471
0.000102898
0.000163441
0.00157935
0.00120346
0.000232768
8.52644e-05
0.000110215
0.000103103
0.000103545
7.70537e-05
8.21852e-05
0.000151885
0.00120906
0.000955035
0.000244195
5.80916e-05
9.44676e-05
7.90958e-05
8.5286e-05
6.67857e-05
6.59914e-05
0.000161707
0.000960402
0.000780245