/*--------------------------------*- C++ -*----------------------------------*\
| =========                 |                                                 |
| \\      /  F ield         | OpenFOAM: The Open Source CFD Toolbox           |
|  \\    /   O peration     | Version:  4.1                                   |
|   \\  /    A nd           | Web:      www.OpenFOAM.org                      |
|    \\/     M anipulation  |                                                 |
\*---------------------------------------------------------------------------*/
FoamFile
{
    version     2.0;
    format      ascii;
    class       volScalarField;
    location    "1600";
    object      nut;
}
// * * * * * * * * * * * * * * * * * * * * * * * * * * * * * * * * * * * * * //

dimensions      [0 2 -1 0 0 0 0];

internalField   nonuniform List<scalar> 
12000
(
0.00383705
0.00380686
0.00380111
0.00379989
0.00379959
0.0037996
0.00379991
0.00380115
0.00380618
0.00383625
0.00225721
0.00223811
0.00222922
0.00222387
0.00222226
0.00222227
0.0022239
0.00222922
0.00223862
0.00225836
0.00146031
0.00146052
0.00145213
0.00144554
0.00144311
0.00144312
0.00144554
0.00145188
0.00146083
0.00146081
0.00102754
0.00103698
0.00103124
0.00102522
0.00102263
0.00102265
0.0010252
0.00103067
0.00103698
0.00102794
0.000774399
0.000786694
0.000783731
0.000778805
0.000776336
0.000776359
0.000778833
0.000783267
0.000786615
0.000774696
0.000615615
0.000628118
0.000627235
0.000623344
0.000621038
0.000621082
0.000623417
0.000626954
0.000628221
0.000615964
0.000509535
0.000521546
0.000522024
0.000518834
0.00051677
0.000516789
0.00051897
0.000521965
0.000521483
0.000510065
0.000434642
0.00044581
0.000447522
0.000445007
0.000443115
0.000443142
0.000445167
0.000447626
0.000446186
0.000435541
0.000379523
0.000390029
0.000392549
0.000390576
0.000388898
0.000388962
0.000390767
0.000392935
0.000390294
0.000380785
0.00033757
0.000347487
0.000350723
0.000349167
0.000347611
0.000347659
0.000349371
0.000350967
0.000347824
0.000339136
0.000304624
0.00031398
0.000317847
0.000316532
0.000315189
0.00031537
0.000316862
0.000318209
0.000314863
0.000306622
0.000278367
0.000288192
0.000291553
0.000290452
0.000289426
0.000289383
0.000290812
0.000292111
0.000288318
0.000280704
0.000256621
0.000264376
0.000270121
0.000268964
0.000268146
0.000268395
0.00026971
0.000270878
0.000266713
0.000259607
0.000238607
0.000246828
0.000252307
0.000251487
0.000250742
0.000251041
0.000252201
0.000253391
0.000248988
0.000242217
0.000223319
0.000232082
0.000237302
0.000236808
0.000236144
0.000236359
0.000237525
0.000238641
0.000234065
0.000227703
0.000210138
0.000219487
0.000224565
0.000224261
0.000223704
0.00022401
0.000225043
0.000226163
0.000221477
0.000215405
0.000198586
0.000208543
0.000213548
0.000213384
0.000212978
0.000213332
0.000214323
0.00021544
0.00021087
0.000204978
0.00018827
0.000198845
0.000203995
0.000203967
0.000203736
0.000204229
0.000205204
0.000206269
0.000201891
0.000196069
0.000178867
0.000190209
0.000195484
0.000195651
0.000195602
0.000196139
0.000197148
0.00019842
0.000194319
0.000188557
0.000170062
0.000182303
0.000187932
0.00018835
0.00018853
0.000189234
0.000190254
0.000191596
0.000187816
0.000182099
0.000161549
0.000174867
0.000181045
0.000181748
0.000182091
0.000182909
0.000184104
0.000185737
0.000182428
0.000176777
0.000152961
0.000167703
0.00017471
0.000175828
0.000176467
0.000177601
0.000178829
0.000180553
0.0001777
0.000172165
0.00014388
0.000160463
0.000168655
0.000170305
0.000171111
0.000172448
0.000174053
0.000176211
0.000173976
0.000168624
0.000133584
0.000152597
0.000162699
0.000165274
0.000166542
0.000168253
0.000169918
0.000172262
0.000170628
0.000165594
0.000121024
0.000143272
0.00015633
0.00016013
0.0001617
0.000163753
0.000166127
0.000169177
0.000168333
0.000163764
0.000103428
0.000131581
0.00014914
0.000155195
0.000157783
0.000160222
0.000162598
0.000166156
0.00016612
0.000162282
7.70529e-05
0.000114863
0.000139506
0.000148655
0.000152442
0.000155852
0.000159401
0.000164109
0.000165016
0.000162539
6.20999e-05
9.31914e-05
0.000125915
0.000140933
0.000147809
0.000151754
0.000155369
0.000161322
0.000164116
0.000162993
7.0849e-05
8.55009e-05
0.000101932
0.000121764
0.000137544
0.00014645
0.00015134
0.000159053
0.000164018
0.000165511
8.96177e-05
0.000102273
0.000104847
0.000106847
0.00011609
0.000128681
0.000142484
0.000153073
0.000162881
0.000168917
0.00380685
8.63364e-05
7.24083e-05
7.23487e-05
7.23582e-05
7.23582e-05
7.23488e-05
7.24069e-05
8.63118e-05
0.0038078
0.00223806
8.6514e-06
5.65188e-06
5.6436e-06
5.64715e-06
5.64692e-06
5.64142e-06
5.65164e-06
8.59586e-06
0.00224371
0.00146042
7.33504e-06
1.72022e-06
1.72848e-06
1.75075e-06
1.75619e-06
1.74921e-06
1.75592e-06
7.44637e-06
0.00146393
0.00103683
1.15107e-05
1.05557e-06
1.09907e-06
1.10485e-06
1.10512e-06
1.09885e-06
8.8809e-07
9.65038e-06
0.00103973
0.000786491
2.42058e-05
1.27803e-06
1.37119e-06
1.40291e-06
1.41016e-06
1.38517e-06
9.94056e-07
2.02359e-05
0.0007884
0.00062784
4.00452e-05
1.64117e-06
1.80108e-06
1.81015e-06
1.81215e-06
1.78017e-06
1.02012e-06
3.6638e-05
0.000629046
0.000521199
7.03309e-05
2.09869e-06
1.79979e-06
2.34398e-06
2.10389e-06
2.0592e-06
1.66772e-06
4.29911e-05
0.00052181
0.000445381
5.16723e-05
2.43263e-06
2.06997e-06
2.16617e-06
1.70318e-06
1.84565e-06
1.18467e-06
6.69275e-05
0.000446348
0.000389515
7.96038e-05
1.6212e-06
2.52803e-06
2.34103e-06
1.90627e-06
1.76799e-06
1.35742e-06
4.10365e-05
0.000390596
0.00034686
9.15589e-05
2.61236e-06
3.73479e-06
3.64907e-06
3.03699e-06
2.83957e-06
1.53095e-06
8.06284e-05
0.0003482
0.000313232
0.000101694
2.0012e-06
5.82707e-06
6.18855e-06
2.66908e-06
2.91872e-06
2.49836e-06
7.1384e-05
0.000315358
0.000287288
0.000101014
2.42692e-06
3.71671e-06
4.83603e-06
2.12383e-06
2.30349e-06
2.05112e-06
6.76344e-05
0.000289084
0.000263288
0.000120741
4.57267e-06
5.04668e-06
4.876e-06
3.16206e-06
2.8823e-06
1.74504e-06
7.90665e-05
0.00026761
0.000245522
0.000125082
6.17549e-06
4.8188e-06
3.33808e-06
5.73188e-06
3.83211e-06
4.23428e-06
7.71396e-05
0.000250034
0.000230527
0.000130748
9.64504e-06
9.95771e-06
3.92423e-06
8.06681e-06
6.35195e-06
5.42438e-06
8.32262e-05
0.000235205
0.000217626
0.000132877
1.54264e-05
1.41026e-05
4.59525e-06
1.12986e-05
9.36859e-06
1.01305e-05
8.85921e-05
0.00022264
0.000206328
0.00012892
2.46332e-05
1.55939e-05
7.00365e-06
1.64461e-05
1.36886e-05
1.39079e-05
9.66413e-05
0.000211822
0.000196194
0.000117998
3.52399e-05
1.74859e-05
1.09458e-05
2.10961e-05
1.93077e-05
1.85902e-05
9.68092e-05
0.000202739
0.000187077
0.000123417
4.57736e-05
2.24261e-05
1.71166e-05
2.61179e-05
2.40287e-05
2.20644e-05
9.56723e-05
0.000194795
0.00017861
0.000119297
5.76796e-05
2.59113e-05
2.35455e-05
2.90509e-05
2.73545e-05
2.81044e-05
9.19258e-05
0.000188171
0.0001706
0.000120282
6.80439e-05
3.44736e-05
2.83455e-05
3.20485e-05
3.38483e-05
3.60893e-05
9.38401e-05
0.000182133
0.000162841
0.000136079
8.04053e-05
4.70828e-05
3.55231e-05
3.80344e-05
4.09188e-05
4.52561e-05
9.38389e-05
0.000177169
0.000155187
0.00015632
8.82294e-05
5.97244e-05
4.49986e-05
4.25452e-05
4.73987e-05
5.25437e-05
9.36486e-05
0.000172313
0.000147094
0.00016016
0.000108528
7.2652e-05
5.79951e-05
5.06065e-05
5.45041e-05
5.8984e-05
9.30762e-05
0.000168488
0.000138158
0.000170069
0.000116361
8.04879e-05
6.72957e-05
6.00002e-05
6.16948e-05
6.40672e-05
9.21767e-05
0.000164294
0.000127697
0.000179512
0.000140419
9.23598e-05
7.68006e-05
6.70965e-05
6.66341e-05
6.72836e-05
9.07208e-05
0.000161183
0.000114579
0.000183433
0.000148779
0.000101157
8.26013e-05
7.38451e-05
7.266e-05
7.26653e-05
9.04387e-05
0.000157216
9.82627e-05
0.000198239
0.000179549
0.000123944
9.38542e-05
8.23523e-05
7.88851e-05
7.67504e-05
9.8382e-05
0.000153794
8.70514e-05
0.000212505
0.000204005
0.000150986
0.000113146
9.50754e-05
9.02213e-05
8.98325e-05
8.20858e-05
0.000150394
8.86215e-05
0.000236741
0.000237464
0.000208677
0.000143035
0.00011207
0.000102462
9.93774e-05
0.000118253
0.000148544
0.0038011
7.24114e-05
5.99444e-05
5.99105e-05
5.99113e-05
5.99116e-05
5.99105e-05
5.99433e-05
7.23985e-05
0.00380323
0.00222919
5.65612e-06
7.37299e-07
7.06747e-07
7.05754e-07
7.06615e-07
7.07029e-07
7.36659e-07
5.63575e-06
0.0022353
0.00145204
1.73324e-06
2.31102e-09
3.38723e-09
3.37922e-09
3.33985e-09
3.414e-09
2.43116e-09
1.70766e-06
0.00145618
0.00103107
1.0463e-06
9.69849e-13
1.15507e-12
1.1711e-12
1.19766e-12
1.1794e-12
1.08995e-12
1.05691e-06
0.00103476
0.000783555
1.40253e-06
8.97861e-12
5.06503e-12
5.66008e-12
8.29874e-13
5.41038e-12
1.69254e-12
1.27489e-06
0.000786509
0.00062688
1.30531e-06
1.38999e-11
3.51555e-12
4.56772e-12
2.67095e-12
6.70032e-12
7.82755e-12
1.54925e-06
0.000629181
0.00052164
2.24202e-06
2.29413e-11
1.17127e-11
1.00118e-11
1.12693e-11
1.2028e-11
2.63037e-11
2.36953e-06
0.000523462
0.000447061
1.74791e-06
1.02037e-10
4.44994e-11
1.91925e-11
4.77687e-11
1.9939e-11
1.69896e-10
1.67211e-06
0.00044879
0.000392142
2.06562e-06
1.78813e-10
3.88061e-10
7.47635e-11
5.70209e-11
5.90855e-11
1.32192e-10
1.89773e-06
0.000393718
0.00035008
3.40285e-06
3.55527e-10
2.15597e-10
3.6255e-10
1.51415e-10
1.23606e-10
4.26341e-10
3.28577e-06
0.00035178
0.000317155
2.3681e-06
1.56035e-09
9.83152e-10
2.3028e-10
6.87775e-10
2.2356e-10
4.66585e-09
3.04882e-06
0.000318813
0.000290648
1.37359e-06
2.25989e-09
1.87658e-09
4.78506e-10
4.5623e-09
3.08061e-10
6.58242e-09
2.78312e-06
0.000292522
0.000269133
3.84382e-06
3.1102e-09
5.8363e-09
1.90474e-09
1.01044e-08
4.11707e-10
1.52818e-08
3.84872e-06
0.000271067
0.000251113
6.62131e-06
2.16325e-08
7.17178e-09
3.29806e-09
6.50109e-09
1.42597e-09
6.14413e-09
7.42883e-06
0.000253379
0.000235843
7.80421e-06
2.54438e-08
7.2894e-09
3.58811e-09
5.00856e-09
4.82519e-09
8.28222e-09
7.56692e-06
0.000238343
0.000222744
1.15056e-05
1.17408e-07
9.58352e-09
2.92827e-09
1.90739e-08
6.20682e-09
1.64996e-08
1.0375e-05
0.000225699
0.000211318
1.82695e-05
2.49776e-07
7.16238e-09
3.24096e-08
2.9002e-08
3.52996e-08
2.47704e-08
1.08584e-05
0.000214636
0.000201209
2.643e-05
6.52547e-07
2.93818e-08
6.12772e-08
3.21612e-08
4.97768e-08
3.25192e-08
1.35483e-05
0.000205351
0.000192092
4.50144e-05
1.83448e-06
5.66307e-08
5.15549e-08
4.40448e-08
1.06864e-07
6.56772e-08
1.54336e-05
0.000196946
0.000183714
6.52907e-05
3.69186e-06
1.49415e-07
1.3939e-07
1.09527e-07
2.48967e-07
1.78427e-07
1.70616e-05
0.000189993
0.000175898
8.28036e-05
7.72601e-06
7.21332e-07
3.28084e-07
1.74542e-07
5.79682e-07
6.65503e-07
1.9027e-05
0.000183262
0.000168356
9.31815e-05
1.04191e-05
1.58506e-06
8.4914e-07
4.2418e-07
1.29653e-06
1.61245e-06
2.13718e-05
0.000177944
0.000160978
0.000106867
1.76394e-05
3.55053e-06
1.68418e-06
1.04822e-06
2.16513e-06
2.72128e-06
2.53915e-05
0.000172153
0.000153441
0.000116144
2.1338e-05
5.10205e-06
2.65948e-06
2.19787e-06
2.79736e-06
3.44754e-06
2.17001e-05
0.000168043
0.00014566
0.000133726
3.29128e-05
8.20728e-06
4.05018e-06
3.18652e-06
3.46606e-06
4.29907e-06
2.21739e-05
0.000162623
0.000137322
0.000141395
4.76136e-05
1.14769e-05
5.89843e-06
4.38788e-06
4.35905e-06
4.78708e-06
2.73769e-05
0.000159307
0.000128152
0.000151715
7.5124e-05
1.90276e-05
8.03196e-06
5.86497e-06
5.4906e-06
5.89656e-06
2.65371e-05
0.000153414
0.000117685
0.000164641
9.75301e-05
2.86577e-05
1.17367e-05
7.70166e-06
7.01986e-06
6.47439e-06
2.55068e-05
0.000148877
0.000106552
0.000180361
0.0001383
4.68174e-05
1.73449e-05
1.03877e-05
9.21025e-06
9.05107e-06
1.99409e-05
0.000140245
9.73762e-05
0.000200754
0.000174169
8.91552e-05
3.3682e-05
1.7034e-05
1.18945e-05
1.0312e-05
2.13567e-05
0.000131222
0.00379988
7.23519e-05
5.99112e-05
5.98819e-05
5.9883e-05
5.98824e-05
5.98821e-05
5.99094e-05
7.23396e-05
0.00380206
0.00222383
5.64762e-06
7.08214e-07
6.82081e-07
6.82705e-07
6.80078e-07
6.82491e-07
7.06087e-07
5.62748e-06
0.00223003
0.00144544
1.74116e-06
3.29828e-09
4.56483e-09
4.48423e-09
4.68275e-09
4.58781e-09
3.53224e-09
1.7157e-06
0.00144958
0.00102505
1.1047e-06
1.13357e-12
7.14787e-13
6.83369e-13
1.3688e-13
7.29196e-13
1.15269e-12
1.10313e-06
0.00102865
0.000778563
1.39171e-06
5.68922e-12
1.76472e-21
1.10826e-21
5.04558e-21
2.47194e-21
3.81023e-12
1.36278e-06
0.000781618
0.000623022
1.81539e-06
7.98194e-12
1.62729e-19
1.7429e-20
8.07545e-23
6.15194e-19
5.0193e-12
1.75756e-06
0.000625398
0.000518425
1.96216e-06
1.62538e-11
6.06347e-20
6.91945e-20
1.54105e-20
8.73759e-19
1.58213e-11
1.92354e-06
0.000520537
0.000444471
1.75971e-06
3.90226e-11
2.45685e-18
3.1294e-20
6.86313e-17
2.25125e-17
3.2965e-11
1.50899e-06
0.000446376
0.000389974
2.08846e-06
9.66832e-11
1.15024e-16
1.51667e-18
9.03566e-16
2.00673e-17
5.65114e-11
1.37871e-06
0.000391837
0.000348311
3.22424e-06
2.89045e-10
2.20253e-16
6.11202e-17
3.73613e-15
2.06792e-17
1.04684e-10
1.1395e-06
0.000350298
0.000315634
2.25717e-06
4.43841e-09
3.41046e-15
4.22994e-16
4.96697e-15
5.76306e-17
3.85464e-10
3.60252e-06
0.000317843
0.000289259
1.61274e-06
4.47277e-09
7.01715e-14
7.60922e-16
1.36206e-12
1.61833e-16
2.02445e-09
2.26541e-06
0.000291937
0.000267856
3.53861e-06
6.11125e-09
2.38491e-13
1.06492e-14
4.03962e-13
2.46661e-16
2.61486e-09
2.47101e-06
0.000270852
0.00024995
5.33468e-06
2.00098e-08
1.59239e-12
1.2431e-14
9.53021e-13
8.33628e-16
6.80746e-09
3.64305e-06
0.000253515
0.000234783
1.0431e-05
2.62434e-08
6.62257e-12
7.17718e-14
7.3994e-12
5.17294e-15
6.11104e-09
5.54015e-06
0.000238777
0.000221677
1.37951e-05
1.04674e-07
4.12621e-10
2.72399e-13
9.04514e-12
5.97102e-14
2.03614e-08
8.81465e-06
0.00022634
0.000210284
2.08992e-05
2.92895e-07
7.37175e-10
2.28492e-12
1.10356e-11
1.19482e-12
4.91558e-08
1.43516e-05
0.000215443
0.000200184
2.96933e-05
4.02223e-07
1.57471e-09
6.05267e-12
2.35367e-11
9.23331e-12
1.15939e-07
1.68419e-05
0.000206256
0.000191099
3.92887e-05
1.02646e-06
9.13946e-09
8.33334e-10
4.00347e-11
2.0197e-10
1.44253e-07
1.85587e-05
0.000197882
0.000182719
5.65633e-05
2.39686e-06
3.30998e-08
3.22825e-10
9.66028e-11
2.15433e-10
3.23474e-07
2.08396e-05
0.000190971
0.00017489
7.33031e-05
5.59025e-06
1.3706e-07
1.63453e-09
1.59269e-10
9.28069e-10
3.01107e-07
2.10721e-05
0.000184173
0.000167371
8.77728e-05
8.7934e-06
4.20558e-07
6.77905e-09
8.76824e-10
3.27263e-09
4.02423e-07
2.53007e-05
0.000178897
0.000160063
0.000100627
1.5077e-05
9.82464e-07
4.36225e-08
1.92117e-09
8.70534e-09
4.00971e-07
2.28796e-05
0.000173034
0.000152649
0.000111482
2.10633e-05
2.37135e-06
1.0486e-07
1.37906e-08
1.86457e-08
4.0883e-07
2.15768e-05
0.000168976
0.000145099
0.000130006
2.98871e-05
3.78127e-06
4.14319e-07
3.69453e-08
3.88e-08
4.34544e-07
2.07487e-05
0.000163478
0.000137137
0.000137044
4.77191e-05
7.85043e-06
9.01408e-07
1.69774e-07
5.09359e-08
5.60493e-07
2.4928e-05
0.000160138
0.000128564
0.000147022
6.69519e-05
1.25008e-05
2.19754e-06
3.11628e-07
1.7311e-07
4.41979e-07
2.40162e-05
0.000154015
0.000119086
0.000156091
8.88255e-05
2.21076e-05
4.12319e-06
8.98578e-07
1.31028e-07
4.48811e-07
1.94551e-05
0.000149189
0.000108653
0.000168138
0.000112405
3.27565e-05
8.10245e-06
1.71009e-06
6.71534e-07
4.61234e-07
1.44529e-05
0.000139918
9.72156e-05
0.000179386
0.00014461
5.29126e-05
1.45727e-05
4.2398e-06
8.65495e-07
7.58306e-07
1.00306e-05
0.000129629
0.00379959
7.23614e-05
5.99115e-05
5.98823e-05
5.98832e-05
5.98831e-05
5.98827e-05
5.99105e-05
7.23491e-05
0.00380177
0.00222222
5.65144e-06
7.0627e-07
6.79645e-07
6.79042e-07
6.79247e-07
6.81415e-07
7.05569e-07
5.63094e-06
0.00222841
0.001443
1.76239e-06
3.37041e-09
4.54187e-09
4.66319e-09
4.47154e-09
4.57039e-09
3.57876e-09
1.73902e-06
0.00144709
0.00102244
1.1109e-06
1.26769e-12
8.32868e-12
2.06571e-13
6.64985e-13
7.33218e-13
1.30419e-12
1.11029e-06
0.00102594
0.00077606
1.413e-06
8.55022e-13
8.31069e-18
1.10052e-21
7.59624e-22
6.70737e-22
4.81793e-13
1.38948e-06
0.000779029
0.000620685
1.87248e-06
2.59857e-12
3.62826e-21
1.11223e-24
8.41071e-20
1.20836e-21
2.59837e-12
1.80608e-06
0.000623024
0.000516267
1.88448e-06
2.13178e-11
1.23382e-18
3.96686e-21
3.43011e-19
2.91616e-18
1.02964e-11
1.93432e-06
0.000518381
0.000442503
2.29218e-06
4.57833e-11
4.02927e-16
1.29437e-18
1.36644e-17
4.82609e-17
2.50495e-11
1.49132e-06
0.000444478
0.000388175
2.73418e-06
9.73813e-11
9.84679e-16
7.40952e-18
2.20601e-18
6.91557e-17
6.36722e-11
2.80349e-06
0.000390028
0.000346727
4.23412e-06
1.25039e-09
1.28866e-14
1.73022e-18
8.31032e-19
5.54131e-16
1.4048e-10
3.07429e-06
0.00034863
0.000314142
7.12027e-06
1.009e-09
1.69097e-14
3.18398e-18
4.6452e-21
8.15261e-16
8.91544e-11
2.8254e-06
0.000316527
0.000288131
5.84073e-06
3.40201e-09
7.47239e-14
4.85989e-18
3.05042e-17
5.64583e-14
7.80545e-10
3.09711e-06
0.000290568
0.000266633
6.84381e-06
1.23008e-08
4.45879e-13
1.14972e-17
1.21105e-17
2.04793e-14
5.33149e-10
2.94203e-06
0.000269563
0.000248828
6.91937e-06
5.57988e-09
8.78286e-12
1.49777e-16
1.05207e-17
4.40161e-14
6.33188e-10
5.21991e-06
0.000252303
0.000233837
1.25818e-05
6.79595e-08
1.72925e-11
7.34557e-15
1.08621e-15
2.79455e-13
3.09704e-09
7.79892e-06
0.000237624
0.000220851
1.50591e-05
6.71435e-08
4.49569e-10
7.38083e-13
3.32319e-15
3.4056e-12
1.08728e-08
9.83534e-06
0.000225214
0.00020953
2.28127e-05
1.10297e-07
5.26832e-10
1.13763e-12
3.4181e-15
2.54879e-12
1.10804e-08
1.47733e-05
0.000214409
0.000199504
2.81119e-05
2.72628e-07
1.34296e-09
3.32037e-10
2.21679e-14
6.26615e-11
7.0854e-08
1.54477e-05
0.000205265
0.00019045
4.0441e-05
7.37462e-07
6.86279e-09
9.95811e-11
7.12946e-13
1.0953e-10
9.48991e-08
1.72549e-05
0.000196898
0.000182112
5.08297e-05
1.9754e-06
2.58293e-08
7.54705e-11
1.23041e-12
2.753e-10
1.0889e-07
1.89275e-05
0.000190054
0.000174329
6.64173e-05
3.60666e-06
8.83519e-08
6.26706e-09
5.97007e-11
5.42301e-10
1.42628e-07
2.03763e-05
0.000183283
0.000166839
7.57824e-05
7.33801e-06
3.23777e-07
2.83733e-09
6.9919e-11
5.69174e-10
1.84364e-07
2.13428e-05
0.00017802
0.000159546
9.24623e-05
1.06056e-05
6.43177e-07
5.49764e-08
1.42516e-07
1.52468e-09
2.09647e-07
2.31011e-05
0.000172184
0.000152148
0.000100096
1.77073e-05
1.61891e-06
6.07709e-08
9.10983e-09
3.14267e-09
2.57252e-07
2.15803e-05
0.000168151
0.000144564
0.000122915
2.30874e-05
2.72645e-06
3.70639e-07
5.01981e-08
5.61766e-09
2.31278e-07
2.06999e-05
0.000162671
0.000136555
0.000131796
3.84036e-05
5.28313e-06
4.51639e-07
6.88679e-08
1.05754e-08
2.38731e-07
2.05159e-05
0.000159292
0.000127886
0.000143327
5.88687e-05
9.45785e-06
1.72597e-06
1.7999e-07
2.39361e-08
4.57689e-07
2.27051e-05
0.000153505
0.000118116
0.000152296
8.22237e-05
1.89546e-05
2.93112e-06
4.79746e-07
2.07042e-07
1.15958e-07
2.04826e-05
0.000148474
0.000107212
0.000166245
0.000107907
2.91004e-05
6.99626e-06
1.28023e-06
8.56179e-08
2.20562e-07
1.44456e-05
0.000139533
9.44742e-05
0.000174253
0.000136925
4.93868e-05
1.26017e-05
3.05711e-06
1.15518e-06
3.08957e-07
1.11461e-05
0.000127493
0.00379959
7.23615e-05
5.99096e-05
5.98824e-05
5.9883e-05
5.98828e-05
5.98822e-05
5.99102e-05
7.23491e-05
0.00380176
0.00222222
5.65098e-06
7.02232e-07
6.80005e-07
6.79204e-07
6.77942e-07
6.79233e-07
7.05157e-07
5.63095e-06
0.0022284
0.001443
1.76958e-06
3.54555e-09
4.68032e-09
4.58029e-09
4.60279e-09
4.69628e-09
3.60217e-09
1.74299e-06
0.00144707
0.00102243
1.11008e-06
8.63115e-13
7.27404e-13
6.28632e-13
2.07939e-13
4.68228e-13
1.33867e-12
1.11189e-06
0.0010259
0.000776061
1.43067e-06
4.57248e-13
8.57091e-22
3.53253e-19
1.82054e-18
8.81587e-19
5.66614e-13
1.3884e-06
0.000778982
0.00062066
1.83409e-06
2.48637e-12
4.20985e-21
3.9297e-24
4.17132e-22
7.57287e-20
2.13273e-12
1.83605e-06
0.000622987
0.000516332
2.85478e-06
1.21502e-11
1.23763e-19
3.05154e-20
3.99437e-22
1.11925e-18
5.26423e-12
2.59398e-06
0.000518391
0.000442521
2.2118e-06
3.71357e-11
3.73675e-19
4.73542e-18
1.33731e-20
6.22868e-18
1.89688e-11
2.63357e-06
0.000444462
0.00038821
2.43607e-06
2.22494e-10
6.80539e-16
2.69276e-18
1.24574e-19
2.80441e-18
1.58983e-11
2.32482e-06
0.000390083
0.000346613
2.54591e-06
1.52193e-09
1.23565e-15
9.00601e-19
4.67966e-18
5.13803e-17
6.41947e-11
3.13338e-06
0.00034882
0.000314088
3.55855e-06
2.2105e-09
8.1855e-14
2.24867e-18
4.25101e-18
1.28571e-16
1.03995e-10
3.76648e-06
0.000316395
0.000287927
2.55142e-06
3.13363e-09
2.127e-13
8.21491e-18
1.41059e-15
3.72723e-16
2.20519e-10
5.03745e-06
0.000290643
0.000266658
3.95062e-06
4.68353e-09
7.52087e-13
8.36832e-16
1.8992e-16
1.49734e-15
3.90971e-10
5.53035e-06
0.000269463
0.000248937
7.20465e-06
8.8957e-09
3.32831e-11
1.72946e-14
2.01442e-15
1.7841e-15
3.68437e-10
5.31617e-06
0.000252281
0.000233848
1.0786e-05
1.57415e-08
4.07773e-11
7.6942e-14
1.62679e-15
5.91773e-15
1.13619e-09
5.36026e-06
0.000237618
0.000220858
1.14099e-05
2.57574e-08
5.5715e-11
4.24025e-13
3.83114e-13
4.97071e-14
3.03347e-09
7.98702e-06
0.000225243
0.000209535
1.6586e-05
7.39629e-08
4.3104e-10
2.87199e-13
2.85676e-13
1.67076e-12
1.4e-08
1.06707e-05
0.000214386
0.000199511
2.35015e-05
2.58901e-07
8.09018e-10
2.34217e-11
1.39672e-12
1.11545e-11
3.29041e-08
1.32969e-05
0.000205189
0.000190449
3.87067e-05
8.25943e-07
6.54704e-09
9.20143e-11
2.42509e-13
1.09649e-11
1.7755e-08
1.60992e-05
0.000196816
0.000182115
5.62633e-05
2.54109e-06
3.51432e-08
7.61414e-11
4.24025e-11
1.20591e-10
3.8631e-08
1.84642e-05
0.000189857
0.00017434
7.21803e-05
4.85839e-06
1.26798e-07
4.38152e-09
2.7684e-13
1.84288e-10
7.82937e-08
2.04433e-05
0.000183033
0.00016686
8.38107e-05
8.61681e-06
4.34589e-07
6.5523e-09
2.01562e-09
1.38576e-09
8.2364e-08
2.07515e-05
0.000177758
0.000159594
9.92934e-05
1.30547e-05
8.29972e-07
7.64158e-08
5.19796e-10
1.27409e-09
1.39043e-07
2.10396e-05
0.000171801
0.000152221
0.000108307
1.92929e-05
1.99816e-06
8.39515e-08
2.21994e-08
2.33456e-09
1.44265e-07
1.92679e-05
0.000167706
0.00014469
0.000128857
2.65234e-05
3.02266e-06
4.25097e-07
9.98337e-09
4.94218e-09
1.40895e-07
1.44395e-05
0.000162009
0.000136714
0.000135747
4.33706e-05
6.10288e-06
4.93824e-07
1.30016e-07
9.34162e-09
1.35416e-07
1.31435e-05
0.000158463
0.000128089
0.00014691
6.45752e-05
1.08185e-05
1.90589e-06
1.021e-07
5.66293e-09
1.40546e-07
1.68103e-05
0.000152528
0.00011839
0.000155636
8.816e-05
2.08648e-05
3.13294e-06
7.98263e-07
1.54569e-07
2.39502e-07
1.57911e-05
0.000148156
0.000107611
0.000169406
0.000113347
3.23883e-05
7.50688e-06
9.99925e-07
2.68927e-07
2.72737e-07
1.3466e-05
0.000137455
9.50675e-05
0.000177567
0.000143657
5.3194e-05
1.41997e-05
3.93397e-06
7.57061e-07
5.09071e-07
8.95815e-06
0.000130808
0.0037999
7.2352e-05
5.99102e-05
5.98817e-05
5.9882e-05
5.98819e-05
5.98812e-05
5.99098e-05
7.23398e-05
0.00380206
0.00222384
5.64553e-06
7.06272e-07
6.80757e-07
6.78995e-07
6.79552e-07
6.80076e-07
7.06953e-07
5.62582e-06
0.00223001
0.00144541
1.76116e-06
3.43731e-09
4.75136e-09
4.66924e-09
4.62898e-09
4.91806e-09
3.56531e-09
1.73465e-06
0.00144948
0.00102497
1.10425e-06
1.25816e-12
6.81563e-13
7.51523e-13
3.77639e-13
2.78144e-13
1.28578e-12
1.10397e-06
0.00102843
0.000778507
1.39867e-06
8.64658e-13
2.5055e-19
5.48688e-19
1.1298e-18
1.78907e-20
1.89501e-13
1.37667e-06
0.000781389
0.000622985
1.82868e-06
2.92538e-12
3.76342e-22
2.81767e-20
6.18952e-21
3.79047e-21
3.11038e-12
1.77045e-06
0.000625263
0.000518396
1.79839e-06
1.84513e-11
6.62224e-19
1.86609e-17
7.92162e-20
5.08413e-19
1.14219e-11
1.85491e-06
0.000520474
0.000444495
2.40043e-06
6.89022e-11
1.89274e-17
3.0018e-18
3.91469e-17
3.48865e-19
1.72832e-11
1.65098e-06
0.000446352
0.000389815
2.78355e-06
3.51815e-10
5.09635e-16
3.39936e-16
8.58396e-17
4.08383e-18
2.3749e-11
1.51759e-06
0.000391836
0.000348197
6.0615e-06
1.45574e-09
1.56253e-14
2.50921e-16
4.86744e-15
1.31587e-17
4.50649e-11
1.28253e-06
0.000350315
0.00031543
6.16229e-06
2.66461e-08
1.20378e-13
1.51405e-15
6.77012e-14
6.73199e-17
2.28221e-10
3.78465e-06
0.000317842
0.000289177
4.65052e-06
1.599e-08
4.44438e-13
4.03531e-14
7.57748e-12
5.89429e-16
2.7029e-10
2.64774e-06
0.000291921
0.00026784
7.3802e-06
8.27634e-09
9.2499e-13
1.76523e-13
5.24929e-12
2.32309e-15
3.83289e-10
1.75492e-06
0.000270842
0.000249989
9.99169e-06
2.6251e-08
4.90185e-11
8.71765e-13
2.0794e-11
4.57327e-14
9.83022e-10
3.79674e-06
0.000253472
0.000234798
1.32143e-05
2.911e-08
2.25767e-10
1.15235e-11
3.86986e-11
5.17504e-13
3.79693e-09
6.15158e-06
0.000238691
0.000221699
1.87372e-05
1.08674e-07
5.0304e-10
1.93835e-12
6.0739e-11
3.7404e-11
3.47958e-08
1.16801e-05
0.000226285
0.000210264
2.59781e-05
2.86507e-07
7.41882e-10
1.66241e-10
1.31472e-09
3.30276e-10
9.13686e-08
1.44664e-05
0.000215377
0.000200124
3.34144e-05
3.80057e-07
5.05967e-09
2.64206e-10
5.21996e-09
2.99755e-10
1.27304e-07
1.88894e-05
0.000206221
0.00019097
5.04218e-05
1.05585e-06
1.04674e-08
9.5471e-10
1.45881e-08
3.27827e-09
1.64595e-07
2.69018e-05
0.000197926
0.000182554
6.56336e-05
2.7627e-06
5.50347e-08
2.6838e-09
1.50325e-08
7.15188e-09
2.71509e-07
2.73536e-05
0.000191015
0.000174716
8.16638e-05
5.58663e-06
1.50545e-07
5.99659e-09
2.30749e-08
2.90573e-08
3.54147e-07
2.97722e-05
0.000184305
0.000167195
9.13175e-05
9.24944e-06
4.7871e-07
3.62056e-08
3.32936e-08
5.22232e-08
4.73568e-07
3.71636e-05
0.000179092
0.000159875
0.000105393
1.41087e-05
9.37959e-07
6.92086e-08
4.41837e-08
6.39294e-08
6.30186e-07
2.79544e-05
0.000173345
0.000152472
0.000114364
2.07544e-05
2.12189e-06
2.08886e-07
5.77882e-08
8.13783e-08
6.40561e-07
3.40584e-05
0.000169358
0.000144917
0.000130988
2.80994e-05
3.65303e-06
3.64093e-07
1.19102e-07
1.14786e-07
6.77279e-07
3.46252e-05
0.000163956
0.000136926
0.000136961
4.53538e-05
6.39728e-06
1.01758e-06
1.53526e-07
1.41727e-07
6.6806e-07
3.1244e-05
0.000160491
0.00012837
0.000146301
6.29415e-05
1.16032e-05
1.62401e-06
4.89009e-07
2.51012e-07
6.09631e-07
2.64574e-05
0.00015421
0.000118873
0.000154546
8.58666e-05
1.96522e-05
4.08274e-06
6.63335e-07
2.72341e-07
6.61576e-07
2.0571e-05
0.000149425
0.00010853
0.000167592
0.000110585
3.15854e-05
7.28454e-06
2.16918e-06
8.63952e-07
6.46479e-07
1.44438e-05
0.000139875
9.72926e-05
0.000178537
0.000143581
5.17244e-05
1.47707e-05
3.78194e-06
1.20071e-06
1.10362e-06
1.01241e-05
0.000129856
0.00380114
7.24101e-05
5.99429e-05
5.99099e-05
5.99105e-05
5.99083e-05
5.99099e-05
5.99409e-05
7.2398e-05
0.00380325
0.00222917
5.6556e-06
7.35999e-07
7.07034e-07
7.05579e-07
7.01468e-07
7.07622e-07
7.34031e-07
5.63717e-06
0.00223534
0.00145175
1.7657e-06
2.59327e-09
3.54194e-09
3.56772e-09
3.51777e-09
3.55644e-09
2.80728e-09
1.74635e-06
0.00145591
0.00103044
8.909e-07
8.99439e-13
1.31013e-12
1.35741e-12
1.1999e-12
1.33666e-12
9.48276e-13
8.91886e-07
0.00103393
0.000782925
9.79141e-07
5.91475e-12
8.50457e-13
2.86607e-13
2.75235e-12
3.56099e-13
1.147e-12
9.66251e-07
0.000785539
0.000626499
1.06799e-06
4.36861e-12
2.39014e-12
5.56055e-12
6.28836e-12
4.14253e-12
3.01478e-12
1.17163e-06
0.000628598
0.000521379
1.45579e-06
8.83328e-12
7.62335e-12
2.09573e-11
2.2741e-11
1.77352e-11
9.46555e-12
8.86462e-07
0.000523108
0.000446852
1.37677e-06
2.9328e-11
8.45613e-12
1.38936e-11
8.7745e-11
3.00666e-11
1.57971e-11
5.82764e-07
0.000448601
0.000391909
2.11983e-06
5.42934e-11
5.46748e-11
1.08186e-10
1.38964e-10
6.54475e-11
2.97025e-11
7.21044e-07
0.000393566
0.000349984
2.36217e-06
1.5345e-10
1.27098e-10
1.61549e-10
3.26446e-09
2.21841e-10
1.14948e-10
1.10926e-06
0.000351636
0.000317133
2.40626e-06
3.54957e-10
1.45055e-10
2.14702e-10
2.62481e-09
3.12371e-10
2.29391e-10
9.6593e-07
0.000318721
0.000290699
3.87394e-06
3.65195e-09
2.80981e-10
4.45182e-10
1.2404e-08
5.69325e-10
1.80995e-09
1.58811e-06
0.000292166
0.000269128
6.90838e-06
1.49692e-08
4.08586e-10
5.953e-10
1.06882e-08
2.03228e-09
4.66753e-09
1.89721e-06
0.000270903
0.000251139
1.18702e-05
1.29737e-08
2.73151e-09
2.56253e-09
1.59026e-08
9.37442e-09
1.36702e-08
3.44048e-06
0.000253212
0.00023591
1.77417e-05
1.0762e-07
1.83604e-08
1.39499e-08
1.69831e-08
1.47343e-08
2.13893e-08
5.45787e-06
0.00023827
0.000222773
2.45227e-05
1.36051e-07
8.86899e-09
2.59937e-08
5.77403e-08
1.4021e-07
9.27866e-08
8.85546e-06
0.000225647
0.000211332
3.07781e-05
3.25207e-07
1.18671e-07
3.7992e-08
1.31158e-07
2.17629e-07
1.32297e-07
1.36036e-05
0.000214661
0.000201164
3.99439e-05
5.86263e-07
1.37283e-07
7.71292e-08
5.12526e-07
4.59244e-07
1.58044e-07
1.79387e-05
0.000205407
0.000192021
5.31335e-05
2.14219e-06
1.64354e-07
2.10499e-07
9.69112e-07
5.54867e-07
4.63697e-07
2.21846e-05
0.000196966
0.000183574
6.43328e-05
3.51403e-06
3.25986e-07
2.63009e-07
1.62437e-06
1.171e-06
5.03972e-07
2.39315e-05
0.000190012
0.000175677
7.84197e-05
7.24016e-06
5.27696e-07
3.89058e-07
2.04935e-06
2.1224e-06
1.15156e-06
2.58989e-05
0.000183244
0.00016805
8.85266e-05
1.00458e-05
1.46439e-06
1.20377e-06
2.81659e-06
3.47653e-06
2.48017e-06
2.77498e-05
0.000177992
0.000160594
0.000103089
1.62519e-05
3.01167e-06
2.04097e-06
3.04673e-06
4.30095e-06
4.40769e-06
2.61239e-05
0.000172206
0.000152972
0.000115136
2.18875e-05
4.98842e-06
3.3938e-06
3.96372e-06
5.21782e-06
5.78355e-06
2.62686e-05
0.000168184
0.000145153
0.000133464
3.23778e-05
8.15841e-06
4.73504e-06
4.65587e-06
5.6909e-06
6.62454e-06
2.63978e-05
0.000162849
0.000136696
0.000140822
4.95562e-05
1.14204e-05
6.5686e-06
5.59049e-06
6.07391e-06
6.85568e-06
3.04515e-05
0.00015949
0.000127447
0.000151988
7.38186e-05
1.99159e-05
9.231e-06
7.11497e-06
7.258e-06
7.65566e-06
2.95088e-05
0.000153507
0.000116659
0.000163361
9.44199e-05
2.99852e-05
1.30746e-05
9.44269e-06
8.47577e-06
8.71976e-06
2.73914e-05
0.00014925
0.000105506
0.000180814
0.000135915
4.60175e-05
2.10933e-05
1.25937e-05
1.07939e-05
1.0742e-05
2.18813e-05
0.000139919
9.66999e-05
0.000199718
0.000171177
8.52076e-05
3.38619e-05
1.91992e-05
1.32358e-05
1.34209e-05
2.39348e-05
0.000131917
0.00380617
8.63175e-05
7.24016e-05
7.23427e-05
7.23523e-05
7.23523e-05
7.23429e-05
7.24011e-05
8.6302e-05
0.00380809
0.00223858
8.60562e-06
5.63925e-06
5.63188e-06
5.63522e-06
5.63507e-06
5.63015e-06
5.64131e-06
8.54009e-06
0.00224472
0.00146073
7.46448e-06
1.71717e-06
1.72491e-06
1.74882e-06
1.75422e-06
1.74574e-06
1.75794e-06
7.39259e-06
0.00146478
0.00103676
9.39075e-06
1.05061e-06
1.11408e-06
1.11652e-06
1.11545e-06
1.11013e-06
8.9851e-07
9.41326e-06
0.00104053
0.0007863
2.07626e-05
1.34062e-06
1.34348e-06
1.39972e-06
1.41623e-06
1.38854e-06
9.7632e-07
1.93222e-05
0.000789012
0.000627643
3.87915e-05
1.45942e-06
2.07276e-06
1.84284e-06
1.81416e-06
1.80765e-06
1.14711e-06
3.14098e-05
0.000629343