/*--------------------------------*- C++ -*----------------------------------*\
| =========                 |                                                 |
| \\      /  F ield         | OpenFOAM: The Open Source CFD Toolbox           |
|  \\    /   O peration     | Version:  4.1                                   |
|   \\  /    A nd           | Web:      www.OpenFOAM.org                      |
|    \\/     M anipulation  |                                                 |
\*---------------------------------------------------------------------------*/
FoamFile
{
    version     2.0;
    format      ascii;
    class       volScalarField;
    location    "1600";
    object      p;
}
// * * * * * * * * * * * * * * * * * * * * * * * * * * * * * * * * * * * * * //

dimensions      [0 2 -2 0 0 0 0];

internalField   nonuniform List<scalar> 
12000
(
0.0762056
0.076484
0.0761464
0.0760254
0.0759877
0.0759862
0.0760211
0.0761395
0.0764746
0.0761926
0.07564
0.0756238
0.0755603
0.0755625
0.075549
0.0755475
0.0755579
0.075553
0.0756138
0.075627
0.0755206
0.0752837
0.0753449
0.0753931
0.075395
0.0753932
0.0753879
0.0753367
0.0752726
0.0755063
0.0754898
0.0752258
0.0753093
0.0753372
0.0753372
0.075335
0.0753309
0.0752994
0.0752124
0.075473
0.0753909
0.0751711
0.0752566
0.0752598
0.0752572
0.0752545
0.0752519
0.0752444
0.075155
0.0753705
0.0752663
0.0750908
0.0751743
0.0751646
0.0751642
0.0751608
0.0751544
0.0751586
0.0750708
0.0752406
0.0751637
0.0750217
0.0750982
0.0750808
0.0750832
0.0750788
0.0750674
0.0750774
0.0749952
0.0751304
0.0750884
0.0749722
0.0750392
0.0750152
0.0750186
0.0750129
0.0749977
0.0750116
0.0749369
0.0750448
0.0750292
0.0749331
0.0749905
0.0749615
0.0749643
0.0749571
0.074939
0.0749547
0.0748871
0.0749728
0.0749796
0.0748986
0.074947
0.0749145
0.0749159
0.0749066
0.0748854
0.0749009
0.0748403
0.0749073
0.0749389
0.0748694
0.0749084
0.0748729
0.0748719
0.0748597
0.0748351
0.0748484
0.0747928
0.0748458
0.0749067
0.0748447
0.0748748
0.0748365
0.0748318
0.0748159
0.0747874
0.0747969
0.0747442
0.0747866
0.0748828
0.0748252
0.0748466
0.0748053
0.0747951
0.0747743
0.0747412
0.0747453
0.0746944
0.0747279
0.0748685
0.074813
0.0748244
0.0747788
0.0747614
0.0747341
0.0746952
0.0746925
0.0746408
0.074667
0.0748646
0.0748082
0.0748088
0.0747568
0.0747301
0.0746944
0.0746479
0.074637
0.0745831
0.0746024
0.0748724
0.0748125
0.0748007
0.0747395
0.0747009
0.0746545
0.0745982
0.074577
0.0745197
0.0745319
0.0748937
0.074828
0.074801
0.0747275
0.0746738
0.0746134
0.0745442
0.0745101
0.0744464
0.0744513
0.0749307
0.074857
0.0748111
0.0747211
0.0746483
0.0745699
0.0744838
0.0744332
0.0743596
0.0743563
0.0749859
0.0749024
0.0748325
0.074721
0.0746239
0.0745224
0.0744143
0.0743426
0.0742548
0.0742418
0.0750612
0.0749673
0.0748673
0.0747279
0.0746003
0.0744691
0.0743324
0.0742336
0.0741261
0.0741011
0.0751578
0.0750545
0.0749172
0.0747428
0.0745773
0.0744082
0.074234
0.0740996
0.0739649
0.0739246
0.0752742
0.0751655
0.0749845
0.074767
0.0745548
0.0743376
0.0741139
0.0739319
0.0737591
0.0736981
0.0754042
0.0752979
0.0750705
0.0748022
0.0745334
0.074255
0.0739658
0.0737186
0.0734912
0.0734003
0.0755352
0.0754421
0.0751759
0.0748514
0.0745148
0.0741587
0.0737819
0.0734429
0.0731342
0.0729976
0.0756486
0.0755793
0.0752985
0.0749198
0.0745031
0.0740479
0.0735529
0.0730812
0.0726458
0.0724334
0.0757258
0.0756873
0.0754359
0.0750166
0.074506
0.0739235
0.0732667
0.0725989
0.0719558
0.0716062
0.0757637
0.0757553
0.0755827
0.0751489
0.0745333
0.0737893
0.0729108
0.0719474
0.0709448
0.0703014
0.0757912
0.0758253
0.0757402
0.0753099
0.0745873
0.0736452
0.0724616
0.071043
0.0694056
0.0680491
0.0758028
0.0758689
0.0758257
0.0754226
0.0746328
0.0734875
0.0719168
0.06979
0.0670411
0.0634143
0.0757698
0.0758156
0.0757184
0.075315
0.0745165
0.0731881
0.0711493
0.0678497
0.0634617
0.0526751
0.0764854
0.0765184
0.0761888
0.0760708
0.0760309
0.0760294
0.0760664
0.076182
0.0765095
0.0764714
0.0756251
0.0755718
0.0755374
0.0755448
0.0755298
0.0755282
0.0755402
0.0755301
0.0755621
0.0756117
0.0752854
0.0750635
0.0751488
0.0752045
0.0752056
0.0752038
0.0751992
0.0751404
0.0750521
0.0752706
0.0752279
0.0749668
0.0750681
0.0750963
0.0750946
0.0750924
0.0750898
0.0750578
0.074953
0.0752103
0.0751738
0.0749504
0.0750544
0.0750503
0.0750461
0.0750434
0.0750421
0.0750414
0.074933
0.0751526
0.0750943
0.0749124
0.0750149
0.0749944
0.0749947
0.0749912
0.0749839
0.0749981
0.0748901
0.0750679
0.075026
0.0748743
0.0749676
0.0749383
0.0749439
0.0749395
0.0749248
0.0749465
0.0748459
0.0749917
0.0749776
0.0748503
0.0749308
0.0748949
0.0749028
0.0748972
0.0748774
0.074904
0.0748139
0.0749326
0.0749401
0.0748338
0.0749019
0.0748613
0.0748692
0.074862
0.0748386
0.0748672
0.0747867
0.0748818
0.0749075
0.0748177
0.0748747
0.0748316
0.0748381
0.0748288
0.074802
0.0748289
0.0747565
0.0748336
0.0748808
0.0748017
0.0748478
0.0748038
0.0748077
0.0747957
0.0747653
0.0747887
0.0747229
0.0747847
0.0748594
0.0747888
0.074824
0.0747786
0.0747782
0.0747626
0.0747287
0.0747471
0.0746862
0.0747346
0.0748439
0.0747794
0.0748046
0.0747566
0.0747501
0.0747298
0.0746916
0.0747037
0.0746459
0.0746831
0.0748368
0.0747742
0.0747893
0.0747377
0.0747232
0.0746968
0.0746534
0.0746583
0.0746015
0.0746273
0.074838
0.0747754
0.0747793
0.0747219
0.0746974
0.0746628
0.0746125
0.0746083
0.0745501
0.0745673
0.0748496
0.0747845
0.0747753
0.0747095
0.0746725
0.0746273
0.0745675
0.0745518
0.0744898
0.0745008
0.0748734
0.0748032
0.0747785
0.0747009
0.0746483
0.0745891
0.074517
0.0744874
0.0744189
0.0744228
0.0749115
0.0748338
0.07479
0.0746966
0.0746243
0.0745473
0.0744589
0.0744121
0.0743336
0.0743289
0.0749659
0.0748789
0.0748114
0.0746972
0.0746002
0.0745001
0.0743904
0.0743218
0.0742291
0.0742143
0.0750385
0.0749412
0.0748442
0.0747031
0.0745753
0.0744457
0.0743078
0.0742114
0.0740988
0.0740716
0.0751303
0.075023
0.0748898
0.0747149
0.074549
0.0743815
0.0742067
0.0740738
0.0739338
0.0738908
0.0752404
0.0751254
0.0749498
0.0747333
0.0745206
0.0743049
0.0740811
0.0738997
0.0737209
0.0736566
0.0753645
0.0752472
0.0750252
0.0747592
0.07449
0.0742126
0.0739236
0.0736757
0.0734411
0.0733462
0.0754931
0.0753831
0.0751168
0.0747946
0.0744576
0.0741019
0.073725
0.0733834
0.0730649
0.0729234
0.0756112
0.0755213
0.0752245
0.0748433
0.0744262
0.0739706
0.073474
0.0729965
0.0725461
0.0723265
0.0757019
0.0756442
0.0753473
0.0749117
0.0744013
0.0738185
0.0731572
0.0724772
0.0718077
0.0714453
0.0757552
0.0757334
0.0754795
0.0750063
0.0743915
0.0736493
0.072761
0.0717732
0.0707185
0.0700449
0.0757785
0.0757924
0.075609
0.0751204
0.0743992
0.0734637
0.072264
0.0708015
0.0690561
0.0676176
0.0757684
0.0758002
0.0756687
0.0751978
0.0744057
0.0732658
0.0716661
0.0694619
0.0665018
0.0626204
0.0757435
0.0757144
0.0755193
0.0750677
0.0742751
0.0729654
0.0709095
0.0674703
0.0627967
0.0512172
0.076149
0.0761901
0.0758825
0.0757599
0.0757184
0.0757169
0.0757555
0.0758757
0.0761813
0.0761343
0.0755628
0.0755387
0.0755102
0.0755124
0.0754973
0.0754957
0.0755078
0.0755029
0.0755289
0.0755493
0.0753479
0.0751503
0.0752361
0.0752901
0.0752915
0.0752896
0.0752847
0.0752276
0.0751389
0.075333
0.0753131
0.0750699
0.0751698
0.0751966
0.0751944
0.0751922
0.07519
0.0751595
0.0750561
0.0752954
0.0752615
0.0750566
0.0751616
0.0751553
0.0751503
0.0751475
0.0751471
0.0751488
0.0750393
0.0752398
0.0751805
0.0750177
0.0751246
0.0751024
0.0751032
0.0750997
0.075092
0.0751083
0.0749957
0.0751532
0.0751058
0.0749712
0.0750704
0.0750401
0.0750477
0.0750434
0.0750268
0.0750499
0.0749434
0.0750712
0.0750488
0.0749355
0.0750222
0.0749851
0.074996
0.0749905
0.074968
0.074996
0.0749
0.0750045
0.0750028
0.0749078
0.0749824
0.0749404
0.0749516
0.0749445
0.074918
0.0749483
0.0748618
0.0749461
0.0749628
0.0748824
0.0749458
0.0749012
0.0749111
0.074902
0.0748719
0.0749008
0.0748221
0.0748898
0.0749287
0.0748577
0.0749107
0.0748649
0.0748721
0.0748604
0.0748267
0.0748521
0.07478
0.0748341
0.0749011
0.0748369
0.0748793
0.0748319
0.0748348
0.0748195
0.0747824
0.0748026
0.0747359
0.0747786
0.0748807
0.0748211
0.074853
0.0748029
0.0747996
0.0747796
0.0747386
0.0747526
0.0746893
0.074722
0.0748685
0.0748107
0.0748318
0.0747778
0.0747664
0.0747403
0.0746943
0.0747009
0.0746395
0.0746627
0.0748654
0.0748071
0.074816
0.0747563
0.074735
0.0747008
0.0746481
0.0746453
0.0745837
0.074599
0.0748728
0.0748113
0.0748064
0.0747386
0.0747048
0.0746599
0.0745983
0.0745838
0.0745195
0.0745279
0.0748925
0.0748252
0.0748039
0.0747249
0.0746753
0.0746167
0.0745431
0.0745146
0.0744448
0.0744458
0.0749261
0.0748506
0.0748099
0.0747153
0.0746462
0.0745699
0.0744805
0.0744348
0.074356
0.0743485
0.0749755
0.0748897
0.0748252
0.0747103
0.0746168
0.0745177
0.0744074
0.0743402
0.0742479
0.0742304
0.0750421
0.0749448
0.0748511
0.07471
0.0745861
0.0744579
0.0743201
0.0742253
0.0741138
0.0740838
0.0751264
0.0750175
0.0748886
0.0747145
0.0745532
0.0743877
0.0742134
0.0740827
0.0739439
0.0738981
0.075227
0.0751087
0.0749386
0.0747239
0.0745167
0.0743037
0.0740809
0.0739023
0.0737248
0.0736575
0.0753397
0.075217
0.0750015
0.0747384
0.0744756
0.074202
0.0739145
0.0736701
0.0734363
0.0733381
0.0754566
0.0753381
0.0750773
0.0747585
0.0744292
0.0740788
0.073704
0.0733665
0.0730479
0.0729021
0.0755672
0.0754628
0.0751649
0.0747865
0.074379
0.0739312
0.0734375
0.0729643
0.0725113
0.0722854
0.0756597
0.0755791
0.0752626
0.0748266
0.0743293
0.0737587
0.0731018
0.0724248
0.071747
0.0713733
0.0757255
0.0756748
0.0753681
0.0748854
0.0742907
0.0735686
0.0726877
0.0716995
0.0706223
0.0699248
0.0757647
0.0757429
0.0754743
0.0749685
0.0742801
0.073379
0.072192
0.0707222
0.0689199
0.0674251
0.0757847
0.0757799
0.0755634
0.0750842
0.0743423
0.0732562
0.0716795
0.0694622
0.0663782
0.0623379
0.0757987
0.0757773
0.0756039
0.0752286
0.0745292
0.0732886
0.0712632
0.0678059
0.0629268
0.0509045
0.0760294
0.0760735
0.0757612
0.0756377
0.0755958
0.0755943
0.0756333
0.0757545
0.0760646
0.0760144
0.0755665
0.0755475
0.0755138
0.0755163
0.0755011
0.0754995
0.0755116
0.0755065
0.0755376
0.0755528
0.0753978
0.0752075
0.0752916
0.0753478
0.0753493
0.0753475
0.0753425
0.0752833
0.0751962
0.0753827
0.075343
0.0751
0.0751984
0.0752271
0.0752246
0.0752224
0.0752206
0.0751883
0.0750862
0.0753251
0.075267
0.0750549
0.0751575
0.0751516
0.075146
0.0751432
0.0751435
0.0751449
0.0750378
0.0752452
0.0751738
0.0750001
0.0751053
0.0750828
0.0750831
0.0750796
0.0750725
0.0750893
0.0749786
0.0751463
0.0750924
0.0749457
0.0750438
0.0750125
0.0750201
0.0750158
0.0749992
0.0750233
0.0749182
0.0750575
0.07503
0.0749045
0.07499
0.074951
0.074962
0.0749566
0.0749338
0.0749635
0.074869
0.0749854
0.0749807
0.0748738
0.0749468
0.0749021
0.0749134
0.0749064
0.0748797
0.0749122
0.0748278
0.0749232
0.0749396
0.0748478
0.0749095
0.074862
0.074872
0.0748629
0.0748327
0.0748643
0.074788
0.0748652
0.0749056
0.074825
0.0748758
0.074827
0.0748342
0.0748225
0.0747888
0.074817
0.0747473
0.0748091
0.0748789
0.0748065
0.0748465
0.0747962
0.074799
0.0747837
0.0747466
0.0747698
0.0747052
0.074754
0.0748601
0.0747931
0.0748222
0.0747698
0.0747663
0.0747463
0.0747053
0.0747222
0.0746609
0.0746986
0.0748496
0.0747853
0.0748031
0.0747474
0.0747358
0.0747097
0.0746637
0.0746726
0.0746128
0.0746411
0.0748481
0.074784
0.0747894
0.0747287
0.0747069
0.0746727
0.0746201
0.0746194
0.074559
0.0745786
0.0748567
0.0747902
0.0747817
0.0747134
0.074679
0.0746343
0.0745728
0.0745605
0.074497
0.0745083
0.0748771
0.0748055
0.0747808
0.0747017
0.0746516
0.0745933
0.0745199
0.0744934
0.0744241
0.0744271
0.0749109
0.0748318
0.0747875
0.0746936
0.074624
0.0745482
0.074459
0.0744151
0.0743367
0.0743306
0.0749596
0.0748708
0.0748028
0.0746892
0.0745954
0.0744971
0.0743872
0.0743215
0.0742294
0.0742128
0.0750245
0.0749246
0.0748276
0.0746885
0.0745648
0.0744376
0.0743003
0.0742069
0.0740953
0.0740659
0.0751058
0.0749946
0.0748629
0.0746913
0.0745307
0.0743666
0.074193
0.0740637
0.0739245
0.0738787
0.0752021
0.0750817
0.0749091
0.0746974
0.0744916
0.0742804
0.0740587
0.0738813
0.073703
0.0736351
0.0753098
0.0751848
0.0749666
0.0747065
0.0744461
0.0741749
0.0738889
0.0736457
0.0734105
0.073311
0.0754225
0.0753004
0.0750356
0.0747194
0.0743935
0.0740463
0.0736735
0.073337
0.0730161
0.0728679
0.0755324
0.0754216
0.0751158
0.0747385
0.0743358
0.0738926
0.0734016
0.0729289
0.072472
0.0722417
0.0756305
0.0755393
0.0752078
0.0747699
0.0742796
0.0737161
0.073063
0.0723857
0.0717003
0.0713186
0.0757103
0.0756449
0.075313
0.0748262
0.074243
0.0735326
0.0726574
0.0716674
0.070576
0.0698632
0.0757709
0.0757321
0.0754326
0.0749274
0.0742596
0.0733775
0.0721996
0.0707267
0.0688996
0.0673755
0.075817
0.0757993
0.0755705
0.0751142
0.0744081
0.0733497
0.0717875
0.0695705
0.0664563
0.0623788
0.0758511
0.0758391
0.0757256
0.0754263
0.0747782
0.0735648
0.0715559
0.0681102
0.0632182
0.0512317
0.0759932
0.0760351
0.0757213
0.0755973
0.0755554
0.0755538
0.0755929
0.0757145
0.0760262
0.0759781
0.0755547
0.0755341
0.0755002
0.0755027
0.0754874
0.0754858
0.075498
0.0754929
0.0755242
0.0755409
0.0754015
0.0752104
0.0752948
0.0753511
0.0753525
0.0753507
0.0753458
0.0752865
0.0751991
0.0753864
0.0753452
0.0751005
0.0751984
0.0752268
0.075224
0.0752218
0.0752203
0.0751883
0.0750867
0.0753273
0.0752672
0.0750535
0.0751553
0.0751487
0.0751426
0.0751399
0.0751406
0.0751428
0.0750364
0.0752452
0.0751769
0.075004
0.0751096
0.0750866
0.0750866
0.0750831
0.0750763
0.0750937
0.0749825
0.0751493
0.0750995
0.0749559
0.075056
0.0750247
0.0750324
0.0750281
0.0750114
0.0750356
0.0749285
0.0750644
0.0750395
0.0749184
0.0750069
0.0749681
0.0749795
0.074974
0.0749508
0.0749804
0.0748831
0.0749946
0.0749915
0.0748895
0.0749658
0.0749214
0.0749333
0.0749263
0.0748989
0.0749313
0.0748438
0.0749335
0.0749513
0.0748646
0.0749297
0.0748823
0.0748931
0.0748841
0.0748531
0.0748847
0.0748052
0.0748764
0.0749177
0.0748423
0.0748966
0.0748477
0.074856
0.0748443
0.0748097
0.0748377
0.0747649
0.0748213
0.0748911
0.0748235
0.0748669
0.0748165
0.0748205
0.0748053
0.0747671
0.0747902
0.0747223
0.074767
0.074872
0.0748092
0.0748415
0.074789
0.0747868
0.074767
0.0747248
0.0747415
0.0746771
0.0747119
0.074861
0.0748001
0.0748209
0.0747651
0.0747549
0.0747289
0.0746818
0.0746906
0.0746278
0.0746541
0.0748586
0.0747972
0.0748056
0.0747447
0.0747244
0.0746904
0.0746367
0.0746361
0.0745728
0.0745908
0.0748662
0.0748018
0.0747962
0.0747277
0.0746947
0.0746503
0.0745879
0.0745759
0.0745099
0.0745196
0.0748853
0.0748154
0.0747934
0.074714
0.0746654
0.0746075
0.0745333
0.0745074
0.074436
0.0744376
0.0749175
0.0748396
0.074798
0.0747039
0.0746359
0.0745605
0.0744707
0.0744274
0.0743474
0.0743402
0.0749643
0.0748764
0.074811
0.0746973
0.0746053
0.0745074
0.0743969
0.074332
0.0742387
0.0742214
0.0750269
0.0749276
0.0748332
0.0746942
0.0745723
0.0744458
0.074308
0.0742154
0.074103
0.0740731
0.0751056
0.0749946
0.0748654
0.0746942
0.0745355
0.0743723
0.0741985
0.07407
0.0739302
0.0738843
0.0751989
0.0750783
0.074908
0.074697
0.0744933
0.0742831
0.0740615
0.0738851
0.0737065
0.0736387
0.0753039
0.075178
0.0749614
0.0747023
0.074444
0.0741743
0.0738887
0.0736466
0.0734113
0.0733119
0.0754147
0.0752908
0.0750262
0.0747109
0.0743874
0.0740421
0.0736701
0.0733349
0.0730139
0.0728658
0.0755246
0.0754111
0.0751029
0.0747258
0.0743258
0.0738852
0.0733956
0.0729241
0.0724669
0.0722364
0.0756258
0.0755308
0.0751931
0.0747542
0.0742676
0.0737079
0.0730568
0.0723806
0.0716943
0.0713116
0.0757116
0.075642
0.0753001
0.0748118
0.0742343
0.0735299
0.0726579
0.071669
0.0705754
0.0698602
0.0757797
0.0757373
0.0754281
0.074924
0.0742661
0.0733937
0.0722214
0.0707503
0.0689196
0.0673907
0.0758318
0.0758116
0.0755842
0.0751406
0.0744525
0.0734101
0.0718591
0.0696474
0.0665318
0.0624405
0.0758694
0.075859
0.0757756
0.0755139
0.0748964
0.0737073
0.0717184
0.0682867
0.0634004
0.0513695
0.0759933
0.0760351
0.0757213
0.0755974
0.0755554
0.0755539
0.075593
0.0757145
0.0760262
0.0759782
0.0755547
0.0755341
0.0755003
0.0755027
0.0754874
0.0754858
0.075498
0.075493
0.0755242
0.0755409
0.0754016
0.0752105
0.0752948
0.0753512
0.0753526
0.0753507
0.0753458
0.0752865
0.0751991
0.0753865
0.0753453
0.0751005
0.0751984
0.0752268
0.0752241
0.0752219
0.0752204
0.0751883
0.0750868
0.0753273
0.0752673
0.0750535
0.0751554
0.0751488
0.0751426
0.0751399
0.0751406
0.0751428
0.0750365
0.0752453
0.075177
0.075004
0.0751096
0.0750867
0.0750866
0.0750832
0.0750763
0.0750937
0.0749825
0.0751493
0.0750995
0.074956
0.0750561
0.0750248
0.0750324
0.0750281
0.0750115
0.0750356
0.0749285
0.0750645
0.0750394
0.0749185
0.0750071
0.0749682
0.0749796
0.0749741
0.0749509
0.0749804
0.0748831
0.0749946
0.0749914
0.0748896
0.074966
0.0749215
0.0749334
0.0749264
0.074899
0.0749313
0.0748438
0.0749337
0.0749512
0.0748648
0.0749299
0.0748824
0.0748933
0.0748842
0.0748532
0.0748847
0.0748052
0.0748767
0.0749178
0.0748424
0.0748967
0.0748479
0.0748561
0.0748445
0.0748098
0.0748379
0.0747649
0.0748214
0.0748915
0.0748236
0.0748669
0.0748167
0.0748207
0.0748055
0.0747672
0.0747904
0.0747225
0.0747671
0.0748724
0.0748093
0.0748416
0.0747892
0.074787
0.0747672
0.0747249
0.0747417
0.0746772
0.0747121
0.0748612
0.0748004
0.0748212
0.0747654
0.0747552
0.0747292
0.074682
0.0746909
0.074628
0.0746543
0.0748588
0.0747977
0.0748061
0.0747451
0.0747247
0.0746908
0.074637
0.0746365
0.0745731
0.0745911
0.0748664
0.0748024
0.0747967
0.0747281
0.0746952
0.0746508
0.0745883
0.0745764
0.0745103
0.0745201
0.0748856
0.0748161
0.074794
0.0747145
0.074666
0.074608
0.0745338
0.0745079
0.0744365
0.0744382
0.074918
0.0748404
0.0747987
0.0747046
0.0746366
0.0745612
0.0744713
0.0744281
0.074348
0.0743409
0.074965
0.0748774
0.0748119
0.0746982
0.0746061
0.0745082
0.0743977
0.0743329
0.0742395
0.0742222
0.0750278
0.0749287
0.0748344
0.0746953
0.0745733
0.0744467
0.0743089
0.0742165
0.074104
0.074074
0.0751066
0.0749959
0.0748667
0.0746955
0.0745367
0.0743734
0.0741996
0.0740713
0.0739315
0.0738854
0.0752001
0.0750797
0.0749095
0.0746984
0.0744946
0.0742846
0.0740629
0.0738868
0.0737081
0.0736401
0.075305
0.0751794
0.074963
0.0747039
0.0744456
0.0741761
0.0738905
0.0736487
0.0734134
0.0733138
0.0754157
0.075292
0.0750277
0.0747126
0.0743892
0.0740442
0.0736723
0.0733375
0.0730165
0.0728682
0.0755252
0.0754119
0.0751042
0.0747275
0.0743278
0.0738876
0.0733982
0.0729273
0.0724703
0.0722395
0.0756259
0.0755311
0.075194
0.074756
0.0742698
0.0737106
0.0730599
0.0723845
0.0716985
0.0713155
0.075711
0.0756415
0.0753005
0.0748133
0.0742364
0.0735327
0.0726614
0.0716736
0.0705806
0.0698651
0.0757784
0.0757361
0.0754277
0.0749249
0.0742681
0.0733966
0.0722253
0.0707556
0.068926
0.0673968
0.0758302
0.07581
0.0755831
0.0751409
0.0744543
0.0734133
0.0718636
0.0696536
0.0665398
0.0624475
0.0758678
0.0758574
0.0757741
0.0755138
0.0748983
0.0737112
0.0717241
0.0682945
0.0634101
0.0513776
0.0760296
0.0760736
0.0757614
0.0756378
0.075596
0.0755945
0.0756334
0.0757546
0.0760648
0.0760146
0.0755667
0.0755476
0.0755139
0.0755164
0.0755012
0.0754996
0.0755117
0.0755066
0.0755377
0.075553
0.0753981
0.0752077
0.0752917
0.0753479
0.0753494
0.0753476
0.0753426
0.0752833
0.0751963
0.0753829
0.0753433
0.0751001
0.0751984
0.0752272
0.0752247
0.0752225
0.0752207
0.0751883
0.0750863
0.0753254
0.0752674
0.075055
0.0751576
0.0751517
0.0751461
0.0751433
0.0751436
0.075145
0.0750379
0.0752454
0.0751741
0.0750002
0.0751054
0.0750829
0.0750832
0.0750798
0.0750726
0.0750894
0.0749787
0.0751465
0.0750927
0.0749458
0.075044
0.0750127
0.0750203
0.075016
0.0749994
0.0750235
0.0749183
0.0750576
0.0750302
0.0749046
0.0749904
0.0749513
0.0749623
0.0749568
0.074934
0.0749637
0.0748691
0.0749855
0.0749808
0.074874
0.0749473
0.0749025
0.0749137
0.0749067
0.07488
0.0749124
0.0748279
0.0749233
0.0749398
0.0748481
0.07491
0.0748624
0.0748723
0.0748632
0.0748331
0.0748647
0.0747883
0.0748653
0.074906
0.0748254
0.0748764
0.0748274
0.0748346
0.0748228
0.0747893
0.0748175
0.0747477
0.0748093
0.0748797
0.0748069
0.074847
0.0747967
0.0747994
0.0747842
0.0747471
0.0747704
0.0747058
0.0747544
0.074861
0.0747936
0.0748228
0.0747703
0.0747669
0.0747469
0.074706
0.0747228
0.0746616
0.0746992
0.0748506
0.074786
0.0748038
0.0747481
0.0747366
0.0747105
0.0746645
0.0746734
0.0746135
0.0746418
0.0748491
0.0747849
0.0747904
0.0747296
0.0747079
0.0746738
0.0746212
0.0746204
0.0745598
0.0745796
0.074858
0.0747914
0.0747829
0.0747145
0.0746803
0.0746357
0.0745742
0.0745618
0.0744983
0.0745097
0.0748787
0.074807
0.0747822
0.0747031
0.0746532
0.0745949
0.0745217
0.0744951
0.0744259
0.0744288
0.0749129
0.0748337
0.0747893
0.0746954
0.074626
0.0745502
0.0744612
0.0744173
0.0743389
0.0743327
0.0749621
0.0748733
0.0748052
0.0746916
0.0745981
0.0744996
0.0743898
0.0743241
0.0742322
0.0742154
0.0750276
0.0749277
0.0748307
0.0746916
0.0745681
0.0744407
0.0743035
0.0742101
0.0740986
0.0740691
0.0751094
0.0749984
0.0748666
0.0746951
0.0745347
0.0743705
0.074197
0.0740675
0.0739286
0.0738828
0.0752061
0.0750861
0.0749135
0.0747018
0.0744964
0.0742852
0.0740636
0.0738862
0.0737082
0.0736405
0.075314
0.0751896
0.0749715
0.0747116
0.0744517
0.0741808
0.0738951
0.0736519
0.073417
0.0733177
0.0754265
0.075305
0.0750407
0.074725
0.0744
0.0740535
0.0736813
0.073345
0.0730244
0.0728766
0.0755354
0.0754255
0.0751209
0.0747445
0.0743431
0.073901
0.0734111
0.0729389
0.0724825
0.0722527
0.075632
0.0755419
0.0752123
0.0747759
0.0742875
0.0737257
0.0730743
0.0723981
0.0717136
0.0713326
0.0757096
0.0756453
0.0753161
0.0748316
0.0742508
0.0735429
0.0726701
0.0716823
0.0705925
0.0698809
0.0757679
0.0757301
0.0754334
0.0749311
0.0742664
0.0733876
0.0722134
0.0707441
0.0689199
0.0673974
0.0758121
0.0757947
0.075568
0.0751149
0.0744129
0.0733593
0.0718022
0.0695904
0.0664811
0.0624047
0.0758451
0.0758324
0.0757196
0.075424
0.0747816
0.0735748
0.071573
0.0681346
0.0632489
0.0512631
0.0761493
0.0761905
0.075883
0.0757603
0.0757188
0.0757173
0.075756
0.0758762
0.0761818
0.0761347
0.0755631
0.075539
0.0755105
0.0755127
0.0754975
0.0754959
0.075508
0.0755032
0.0755291
0.0755495
0.0753484
0.0751504
0.0752361
0.0752902
0.0752916
0.0752898
0.0752848
0.0752277
0.0751389
0.0753333
0.0753137
0.0750699
0.0751698
0.0751966
0.0751945
0.0751922
0.0751901
0.0751595
0.075056
0.0752957
0.0752621
0.0750565
0.0751616
0.0751554
0.0751504
0.0751477
0.0751472
0.0751488
0.0750394
0.0752401
0.075181
0.0750175
0.0751246
0.0751026
0.0751034
0.0750999
0.0750922
0.0751085
0.0749959
0.0751535
0.0751062
0.0749713
0.0750708
0.0750404
0.075048
0.0750436
0.0750269
0.0750502
0.0749437
0.0750715
0.0750489
0.074936
0.075023
0.0749856
0.0749964
0.0749909
0.0749682
0.0749963
0.0749003
0.0750049
0.0750029
0.0749087
0.0749834
0.074941
0.0749521
0.074945
0.0749183
0.0749484
0.074862
0.0749467
0.0749633
0.0748828
0.0749466
0.0749018
0.0749116
0.0749025
0.0748723
0.0749011
0.0748224
0.0748905
0.0749293
0.0748584
0.0749118
0.0748655
0.0748727
0.0748609
0.0748274
0.0748529
0.0747804
0.0748346
0.0749018
0.0748381
0.0748807
0.0748326
0.0748355
0.0748202
0.0747832
0.074804
0.0747366
0.0747789
0.0748818
0.0748226
0.0748545
0.0748038
0.0748006
0.0747806
0.0747396
0.0747542
0.0746905
0.0747226
0.07487
0.0748127
0.0748335
0.074779
0.0747678
0.0747416
0.0746955
0.0747024
0.0746406
0.0746638
0.0748672
0.0748096
0.0748181
0.074758
0.0747368
0.0747024
0.0746496
0.074647
0.0745849
0.0746003
0.0748752
0.0748144
0.0748088
0.0747406
0.074707
0.0746621
0.0746003
0.0745861
0.0745215
0.0745295
0.0748955
0.0748287
0.0748067
0.0747273
0.0746781
0.0746194
0.0745458
0.0745177
0.0744476
0.0744479
0.0749299
0.0748546
0.0748131
0.0747184
0.0746496
0.0745733
0.0744838
0.0744386
0.0743595
0.0743513
0.0749801
0.0748944
0.0748291
0.0747143
0.0746211
0.074522
0.0744115
0.0743448
0.0742524
0.0742343
0.0750476
0.0749503
0.0748561
0.0747151
0.0745916
0.0744632
0.0743252
0.0742308
0.0741193
0.0740891
0.0751328
0.075024
0.0748949
0.0747209
0.0745599
0.0743943
0.0742198
0.0740895
0.0739508
0.073905
0.0752342
0.0751163
0.0749462
0.0747315
0.0745247
0.0743118
0.074089
0.0739107
0.0737334
0.0736663
0.0753474
0.0752255
0.0750103
0.0747473
0.0744851
0.0742121
0.0739248
0.0736808
0.0734471
0.0733492
0.0754641
0.0753469
0.0750869
0.0747687
0.0744404
0.0740911
0.0737169
0.07338
0.0730617
0.0729163
0.0755736
0.0754711
0.0751749
0.0747979
0.0743921
0.073946
0.0734537
0.0729814
0.0725291
0.0723036
0.075664
0.0755857
0.0752725
0.0748386
0.0743438
0.0737759
0.0731214
0.0724463
0.0717698
0.0713969
0.0757266
0.0756783
0.0753766
0.0748969
0.0743056
0.0735874
0.0727104
0.0717258
0.0706514
0.0699553
0.0757617
0.0757421
0.0754792
0.0749771
0.0742927
0.0733971
0.0722163
0.0707529
0.0689562
0.0674641
0.0757767
0.0757723
0.0755595
0.0750842
0.0743478
0.0732696
0.0717022
0.0694951
0.0664216
0.0623853
0.0757874
0.0757624
0.075587
0.0752145
0.0745223
0.0732929
0.0712812
0.0678387
0.0629759
0.0509605
0.0764855
0.0765192
0.0761898
0.0760717
0.0760319
0.0760303
0.0760674
0.076183
0.0765106
0.0764715
0.0756251
0.0755722
0.0755377
0.075545
0.07553
0.0755284
0.0755403
0.0755303
0.0755622
0.0756116
0.0752856
0.0750635
0.0751488
0.0752045
0.0752056
0.0752038
0.0751992
0.0751404
0.0750519
0.0752706
0.0752283
0.0749669
0.0750681
0.0750963
0.0750947
0.0750924
0.0750898
0.0750578
0.0749528
0.0752103
0.0751745
0.0749503
0.0750543
0.0750504
0.0750463
0.0750435
0.0750422
0.0750415
0.074933
0.0751524
0.0750952
0.0749123
0.0750148
0.0749946
0.0749949
0.0749914
0.0749841
0.0749986
0.0748904
0.0750676
0.0750265
0.0748744
0.0749679
0.0749386
0.0749442
0.0749398
0.0749252
0.074947
0.0748463
0.0749917
0.0749777
0.0748506
0.0749316
0.0748954
0.0749033
0.0748977
0.0748779
0.0749047
0.0748147
0.0749329
0.0749398
0.0748344
0.074903
0.074862
0.0748698
0.0748626
0.0748392
0.0748678
0.0747876
0.0748826
0.0749085
0.0748183
0.0748754
0.0748324
0.0748388
0.0748296
0.0748028
0.0748296
0.0747578
0.0748345
0.0748825
0.0748026
0.0748487
0.0748047
0.0748085
0.0747965
0.0747663
0.0747893
0.0747242
0.074786
0.0748612
0.0747897
0.0748255
0.0747796
0.0747792
0.0747637
0.0747298
0.0747479
0.0746876
0.0747364
0.0748465
0.0747805
0.0748061
0.0747578
0.0747514
0.0747311
0.074693
0.0747052
0.0746476
0.0746845
0.0748392
0.0747762
0.0747914
0.0747392
0.074725
0.0746984
0.074655
0.0746597
0.0746029
0.0746295
0.0748405
0.0747782
0.0747822
0.0747239
0.0746997
0.0746649
0.0746145
0.07461
0.0745517
0.0745698
0.0748523
0.074788
0.0747788
0.074712
0.0746754
0.0746299
0.0745702
0.0745544
0.0744922
0.0745029
0.0748768
0.0748076
0.0747825
0.0747041
0.0746518
0.0745926
0.0745205
0.0744909
0.074422
0.0744252
0.0749158
0.0748392
0.0747947
0.0747006
0.0746288
0.0745516
0.0744633
0.0744166
0.0743378
0.0743324
0.0749713
0.0748854
0.074817
0.0747023
0.0746058
0.0745056
0.0743959
0.0743275
0.0742346
0.0742193
0.0750452
0.074949
0.074851
0.0747095
0.0745824
0.0744526
0.0743148
0.0742184
0.074106
0.0740786
0.0751387
0.0750323
0.0748982
0.074723
0.0745578
0.0743903
0.0742155
0.0740827
0.073943
0.0738999
0.0752503
0.0751364
0.07496
0.0747432
0.0745315
0.0743159
0.0740922
0.0739109
0.0737325
0.0736683
0.0753754
0.0752597
0.0750373
0.0747712
0.0745033
0.0742266
0.0739378
0.0736901
0.0734557
0.0733611
0.075504
0.0753965
0.0751309
0.074809
0.0744738
0.0741193
0.073743
0.0734019
0.0730838
0.0729427
0.0756207
0.0755342
0.0752403
0.0748605
0.0744458
0.0739923
0.073497
0.0730205
0.0725708
0.0723518
0.0757084
0.0756548
0.0753644
0.074932
0.0744246
0.073845
0.0731862
0.0725084
0.0718403
0.0714789
0.0757582
0.0757404
0.0754966
0.0750288
0.0744179
0.0736804
0.0727968
0.0718133
0.070762
0.0700903
0.0757773
0.0757958
0.0756233
0.0751416
0.0744257
0.0734973
0.0723059
0.0708517
0.0691139
0.0676794
0.0757603
0.0757926
0.0756668
0.0752037
0.0744207
0.0732929
0.0717077
0.0695196
0.0665761
0.0627014
0.075731
0.0756958
0.0754923
0.0750407
0.074257
0.0729645
0.0709321
0.0675218
0.0628794
0.0513145
0.0762044
0.0764823
0.0761441
0.0760229
0.0759851
0.0759836
0.0760186
0.0761372
0.0764729
0.0761897
0.0756394
0.075623
0.0755594
0.0755616
0.0755481
0.0755465
0.0755569
0.075552
0.0756129
0.0756256
0.0755206
0.0752836
0.0753446
0.0753928
0.0753947
0.0753928
0.0753875
0.0753362
0.0752721
0.0755056
0.0754902
0.075226
0.0753094
0.0753373
0.0753373
0.075335
0.0753308
0.0752993
0.0752123
0.0754727
0.0753917
0.0751719
0.0752572
0.0752602
0.0752575
0.0752548
0.075252
0.0752445
0.0751548
0.0753704
0.0752672
0.0750919
0.075175
0.0751651
0.0751646
0.0751612
0.0751547
0.0751588
0.0750705
0.0752407
0.0751644
0.0750224
0.0750989
0.0750815
0.0750838
0.0750795
0.0750681
0.075078
0.0749953
0.0751309
0.0750887
0.0749724
0.0750398
0.075016
0.0750194
0.0750137
0.0749987
0.0750126
0.0749374
0.0750458
0.0750293
0.0749331
0.0749914
0.0749624
0.0749654
0.0749581
0.07494
0.0749561
0.0748882
0.0749741
0.0749802
0.0749
0.0749484
0.0749157
0.0749173
0.0749078
0.0748865
0.0749025
0.0748415
0.0749089
0.0749402
0.0748714
0.07491
0.0748747
0.0748736
0.0748614
0.0748366
0.0748501
0.0747945
0.0748474
0.0749085
0.0748469
0.0748766
0.0748389
0.0748339
0.0748179
0.0747891
0.0747984
0.0747464
0.0747885
0.0748855
0.0748281
0.0748488
0.0748077
0.0747974
0.0747765
0.074743
0.0747469
0.0746962
0.0747298
0.0748718
0.0748159
0.0748271
0.0747812
0.0747638
0.0747366
0.0746973
0.0746945
0.0746433
0.0746693
0.0748682
0.0748112
0.0748121
0.0747596
0.0747329
0.0746973
0.0746506
0.0746395
0.074586
0.074605
0.0748764
0.074816
0.0748047
0.0747432
0.0747044
0.0746581
0.0746016
0.07458
0.0745224
0.0745343
0.0748985
0.0748324
0.0748062
0.0747322
0.0746782
0.0746179
0.0745486
0.0745139
0.0744495
0.0744542
0.0749366
0.0748627
0.0748176
0.074727
0.0746538
0.0745754
0.0744894
0.0744382
0.074364
0.0743604
0.0749928
0.0749095
0.0748406
0.0747284
0.0746309
0.0745293
0.0744214
0.0743493
0.0742611
0.0742479
0.0750696
0.0749761
0.074877
0.0747373
0.0746092
0.0744779
0.0743414
0.0742424
0.0741346
0.0741096
0.0751678
0.0750654
0.0749289
0.0747545
0.0745886
0.0744194
0.0742454
0.0741109
0.073976
0.0739357
0.0752855
0.0751784
0.0749984
0.0747814
0.0745692
0.0743518
0.0741284
0.0739463
0.0737734
0.0737122
0.0754162
0.0753121
0.0750865
0.0748197
0.0745515
0.0742731
0.0739843
0.073737
0.0735094
0.0734183
0.0755463
0.0754562
0.0751936
0.0748721
0.0745372
0.0741817
0.0738056
0.0734666
0.0731578
0.0730209
0.0756571
0.0755916
0.0753174