/*--------------------------------*- C++ -*----------------------------------*\
| =========                 |                                                 |
| \\      /  F ield         | OpenFOAM: The Open Source CFD Toolbox           |
|  \\    /   O peration     | Version:  4.1                                   |
|   \\  /    A nd           | Web:      www.OpenFOAM.org                      |
|    \\/     M anipulation  |                                                 |
\*---------------------------------------------------------------------------*/
FoamFile
{
    version     2.0;
    format      ascii;
    class       surfaceScalarField;
    location    "1600";
    object      phi;
}
// * * * * * * * * * * * * * * * * * * * * * * * * * * * * * * * * * * * * * //

dimensions      [0 3 -1 0 0 0 0];

internalField   nonuniform List<scalar> 
33700
(
4.95898e-05
0.000900899
4.95156e-05
2.32193e-05
0.000971104
5.52725e-05
8.46804e-06
0.000957363
5.73953e-05
3.15456e-06
0.000948186
5.71357e-05
8.31974e-08
0.000945731
5.73494e-05
-2.99534e-06
0.000945736
5.73504e-05
-8.32586e-06
0.000948198
5.71398e-05
-2.31051e-05
0.000957379
5.74044e-05
-4.95161e-05
0.000971127
5.52859e-05
0.00090087
4.96151e-05
3.13031e-05
0.000838461
3.11448e-05
2.40548e-05
0.00093945
3.89163e-05
1.35325e-05
0.000927133
4.07704e-05
6.14771e-06
0.000915621
3.99712e-05
2.06566e-07
0.000911414
4.02804e-05
-5.75196e-06
0.000911433
4.02821e-05
-1.31705e-05
0.000915668
3.99651e-05
-2.36671e-05
0.000927169
4.07166e-05
-3.09063e-05
0.00093949
3.88826e-05
0.000838706
3.12601e-05
1.63128e-05
0.000806108
1.60505e-05
1.716e-05
0.000914987
2.36312e-05
1.1915e-05
0.000907816
2.45826e-05
6.0959e-06
0.000897557
2.39066e-05
3.63971e-07
0.000892855
2.43143e-05
-5.40028e-06
0.000892897
2.43223e-05
-1.12924e-05
0.000897658
2.39181e-05
-1.65202e-05
0.000907854
2.45536e-05
-1.57659e-05
0.000915109
2.36336e-05
0.000806866
1.60782e-05
9.03269e-06
0.000788448
8.63716e-06
1.24772e-05
0.00089718
1.43773e-05
9.82067e-06
0.000896431
1.40601e-05
5.29446e-06
0.000887959
1.41456e-05
5.56933e-07
0.000882932
1.46824e-05
-4.2283e-06
0.000883001
1.46997e-05
-8.87904e-06
0.000888137
1.41859e-05
-1.15496e-05
0.000896427
1.41076e-05
-8.31856e-06
0.000897449
1.4437e-05
0.000789873
8.67964e-06
5.72473e-06
0.000777586
5.14662e-06
9.69501e-06
0.000883911
9.31165e-06
8.54445e-06
0.00089017
7.42836e-06
4.81545e-06
0.000883169
8.53662e-06
8.04489e-07
0.000877801
9.16007e-06
-3.26503e-06
0.000877899
9.18727e-06
-7.18657e-06
0.000883475
8.59604e-06
-8.42994e-06
0.000890137
7.54297e-06
-4.76754e-06
0.000884313
9.48196e-06
0.000779908
5.2031e-06
4.5633e-06
0.000769271
3.7581e-06
7.50254e-06
0.000873837
7.14466e-06
7.49649e-06
0.000886431
3.75703e-06
4.54964e-06
0.000880368
5.76248e-06
1.11964e-06
0.000874911
6.3338e-06
-2.3355e-06
0.000875013
6.35242e-06
-5.56602e-06
0.000880887
5.82769e-06
-5.88873e-06
0.000886555
3.91301e-06
-3.25628e-06
0.000874381
7.30819e-06
0.000772844
3.81446e-06
4.40646e-06
0.000761528
3.34159e-06
5.82683e-06
0.000866029
6.3941e-06
6.70834e-06
0.000883612
1.94496e-06
4.38446e-06
0.000877968
4.73305e-06
1.5449e-06
0.000872681
5.07937e-06
-1.32406e-06
0.000872793
5.09827e-06
-3.99356e-06
0.000878787
4.7767e-06
-3.6984e-06
0.000884216
2.05113e-06
-2.66395e-06
0.000866773
6.58118e-06
0.000766779
3.40634e-06
4.58768e-06
0.000753765
3.17953e-06
4.85555e-06
0.000859615
6.15048e-06
6.36702e-06
0.000881104
1.00292e-06
4.40645e-06
0.00087556
4.37689e-06
2.11021e-06
0.000870568
4.41779e-06
-3.06425e-07
0.000870772
4.44479e-06
-2.6621e-06
0.000876741
4.40832e-06
-1.94544e-06
0.000882466
1.03938e-06
-2.29892e-06
0.000860785
6.34838e-06
0.000761168
3.31814e-06
4.92697e-06
0.0007458
3.04113e-06
4.52331e-06
0.000853953
6.06922e-06
6.35609e-06
0.000878784
4.91041e-07
4.70867e-06
0.00087301
4.20275e-06
2.82441e-06
0.0008685
3.9579e-06
7.45947e-07
0.000868889
3.96757e-06
-1.46725e-06
0.000874703
4.25578e-06
-5.59307e-07
0.000881147
4.16747e-07
-1.87179e-06
0.000855828
6.27776e-06
0.000756037
3.26487e-06
5.39041e-06
0.000737539
2.87467e-06
4.58001e-06
0.000848824
5.94326e-06
6.76917e-06
0.000876492
1.07666e-07
5.34193e-06
0.000870392
4.04908e-06
3.76786e-06
0.000866544
3.53516e-06
1.93955e-06
0.000867164
3.55741e-06
-2.44005e-07
0.000872721
4.16947e-06
5.70121e-07
0.000880263
7.53207e-08
-1.29763e-06
0.000851455
6.24705e-06
0.000751575
3.17106e-06
6.02552e-06
0.000728842
2.67837e-06
4.98946e-06
0.000844101
5.7634e-06
7.63696e-06
0.000873959
-1.11347e-07
6.32402e-06
0.000867768
3.94112e-06
4.91517e-06
0.00086474
3.21638e-06
3.32885e-06
0.000865588
3.164e-06
1.06978e-06
0.000870881
4.10212e-06
1.74035e-06
0.000879716
-1.19571e-07
-5.65815e-07
0.000847545
6.22397e-06
0.000747954
3.06258e-06
6.91477e-06
0.000719474
2.46056e-06
5.70971e-06
0.000839843
5.46926e-06
8.78134e-06
0.000871197
-3.04826e-07
7.65322e-06
0.000865082
3.81692e-06
6.48291e-06
0.000862982
2.92971e-06
5.01031e-06
0.000864171
2.89146e-06
2.5703e-06
0.000869193
4.12998e-06
3.218e-06
0.000879319
-2.45378e-07
2.37791e-07
0.00084433
6.20358e-06
0.000745145
3.05434e-06
8.16088e-06
0.000709033
2.2898e-06
6.78354e-06
0.000836006
5.22073e-06
1.0365e-05
0.000868134
-5.15236e-07
9.50237e-06
0.000862242
3.70354e-06
8.63142e-06
0.000861138
2.71603e-06
7.13288e-06
0.000863
2.6708e-06
4.47763e-06
0.000867737
4.11345e-06
4.93979e-06
0.000879228
-3.66118e-07
1.12584e-06
0.000842096
6.05636e-06
0.000743144
3.13556e-06
9.73916e-06
0.000697288
2.01603e-06
8.81732e-06
0.000831927
5.00793e-06
1.27091e-05
0.000864755
-5.1006e-07
1.20861e-05
0.000859232
3.63372e-06
1.14e-05
0.000859245
2.57881e-06
9.87752e-06
0.000862086
2.43676e-06
6.86451e-06
0.00086668
4.0719e-06
6.94483e-06
0.000879625
-4.72538e-07
2.20807e-06
0.00084098
5.86188e-06
0.00074212
3.24089e-06
1.1788e-05
0.000683833
1.67839e-06
1.17967e-05
0.000827096
4.82817e-06
1.59316e-05
0.000860975
-3.52757e-07
1.55632e-05
0.000856028
3.57345e-06
1.50207e-05
0.000857314
2.47339e-06
1.34152e-05
0.000861461
2.2306e-06
9.87952e-06
0.00086619
4.0283e-06
9.36808e-06
0.000880664
-5.2133e-07
3.55471e-06
0.000841127
5.67606e-06
0.000742354
3.32961e-06
1.461e-05
0.000667755
1.47787e-06
1.57121e-05
0.000821292
4.70747e-06
2.02194e-05
0.000856617
-1.46862e-07
2.01817e-05
0.000852559
3.50678e-06
1.97261e-05
0.000855356
2.41435e-06
1.79507e-05
0.000861174
2.06415e-06
1.37677e-05
0.000866409
3.96746e-06
1.24241e-05
0.000882544
-5.29443e-07
5.23327e-06
0.000842834
5.49442e-06
0.000744173
3.42394e-06
1.83163e-05
0.000648058
1.39159e-06
2.08822e-05
0.000814097
4.63456e-06
2.5892e-05
0.000851459
1.50323e-07
2.62371e-05
0.000848741
3.474e-06
2.58218e-05
0.000853343
2.42954e-06
2.37765e-05
0.000861256
1.96501e-06
1.87969e-05
0.000867466
3.92665e-06
1.63125e-05
0.000885514
-4.77128e-07
7.37925e-06
0.000846437
5.3423e-06
0.000747963
3.6004e-06
2.31157e-05
0.000623446
1.50838e-06
2.76469e-05
0.000804897
4.67529e-06
3.33351e-05
0.000845242
5.32523e-07
3.41126e-05
0.000844461
3.50551e-06
3.37089e-05
0.000851192
2.55685e-06
3.1289e-05
0.000861711
1.96862e-06
2.53116e-05
0.000869504
3.94616e-06
2.12709e-05
0.000889862
-2.98848e-07
1.01768e-05
0.000852263
5.28062e-06
0.000754245
3.90501e-06
2.91833e-05
0.000592366
1.9098e-06
3.65105e-05
0.000792665
4.91366e-06
4.30516e-05
0.000837601
1.10575e-06
4.43269e-05
0.000839527
3.66291e-06
4.39276e-05
0.000848749
2.84707e-06
4.10124e-05
0.000862502
2.12957e-06
3.37645e-05
0.000872684
4.0751e-06
2.77117e-05
0.000895898
2.719e-08
1.38054e-05
0.000860817
5.36614e-06
0.000763644
4.41799e-06
3.66764e-05
0.00055292
2.78563e-06
4.80023e-05
0.000775825
5.52432e-06
5.56921e-05
0.000827949
1.96958e-06
5.75419e-05
0.00083364
4.04334e-06
5.71438e-05
0.000845779
3.3749e-06
5.36112e-05
0.000863519
2.52309e-06
4.47812e-05
0.000877137
4.38538e-06
3.6153e-05
0.000903938
5.99701e-07
1.85307e-05
0.000872784
5.66901e-06
0.000776953
5.23298e-06
4.56558e-05
0.00050288
4.40343e-06
6.27209e-05
0.000752033
6.73906e-06
7.20458e-05
0.000815364
3.27091e-06
7.457e-05
0.000826346
4.77928e-06
7.41999e-05
0.000841911
4.24665e-06
6.99313e-05
0.000864525
3.27231e-06
5.91616e-05
0.000882941
4.97708e-06
4.72512e-05
0.000914338
1.52326e-06
2.47765e-05
0.000888994
6.28038e-06
0.000795286
6.45627e-06
5.58887e-05
0.000440011
7.00415e-06
8.11652e-05
0.000717905
8.86655e-06
9.29838e-05
0.000798301
5.25574e-06
9.6396e-05
0.000816882
6.06151e-06
9.61422e-05
0.000836564
5.61153e-06
9.11229e-05
0.000865037
4.51777e-06
7.803e-05
0.000890033
6.01196e-06
6.19633e-05
0.0009275
2.91798e-06
3.31336e-05
0.000910477
7.36164e-06
0.000820176
8.25421e-06
6.6654e-05
0.000362679
1.07069e-05
0.000103398
0.000668994
1.21851e-05
0.000119323
0.000774114
8.27562e-06
0.000124174
0.000803886
8.15674e-06
0.000124292
0.000828765
7.69271e-06
0.000118689
0.000864171
6.48063e-06
0.000103009
0.000898031
7.69507e-06
8.17131e-05
0.000943826
4.98337e-06
4.45105e-05
0.000938563
9.13046e-06
0.000853827
1.08699e-05
7.64121e-05
0.000270968
1.53362e-05
0.000128313
0.000600326
1.67873e-05
0.000151456
0.000738336
1.26504e-05
0.000159147
0.000784769
1.1439e-05
0.000160323
0.000816823
1.07776e-05
0.000154642
0.000860416
9.44788e-06
0.000136421
0.000905953
1.03104e-05
0.000108696
0.000963563
7.99992e-06
6.03188e-05
0.000975037
1.1913e-05
0.000899495
1.46577e-05
8.24084e-05
0.000168573
2.00404e-05
0.000152721
0.000507776
2.22623e-05
0.000188541
0.000683883
1.86518e-05
0.00020239
0.000754489
1.64468e-05
0.00020628
0.000797655
1.52936e-05
0.000201715
0.000851215
1.37785e-05
0.000181641
0.000911798
1.42403e-05
0.000146458
0.000986409
1.23434e-05
8.31279e-05
0.00102222
1.61541e-05
0.000962489
2.0134e-05
7.97791e-05
6.64227e-05
2.24556e-05
0.000170219
0.000390089
2.72813e-05
0.000227274
0.000600394
2.64565e-05
0.000254234
0.0007035
2.40499e-05
0.000264679
0.000765294
2.1935e-05
0.000263735
0.000832252
1.99245e-05
0.00024373
0.000911887
1.99264e-05
0.000200783
0.00101086
1.84994e-05
0.000117149
0.00108337
2.24768e-05
0.00105159
2.80491e-05
5.96942e-05
-1.38587e-05
2.07084e-05
0.000170706
0.000249701
2.94235e-05
0.000260319
0.000475338
3.54769e-05
0.000312146
0.000616425
3.52793e-05
0.000337335
0.000708168
3.19671e-05
0.000345419
0.000795563
2.8628e-05
0.000330087
0.000899361
2.78744e-05
0.000281669
0.00103227
2.70051e-05
0.000173079
0.00116015
3.18125e-05
0.00118497
3.96859e-05
1.47663e-05
-5.41326e-05
2.56382e-05
0.000145036
8.43816e-05
3.51146e-05
0.00027662
0.000296529
4.7267e-05
0.000369638
0.000472772
5.06723e-05
0.000425033
0.000606293
4.65147e-05
0.000453237
0.000726509
4.08785e-05
0.000452032
0.000862043
3.85362e-05
0.000405242
0.00104097
3.81067e-05
0.000268377
0.00125214
4.48597e-05
0.00139667
5.6665e-05
-3.6463e-07
-8.19531e-05
2.81963e-05
0.000104144
-6.61919e-05
4.60945e-05
0.000256771
7.77574e-05
6.61745e-05
0.000399243
0.000256163
7.41702e-05
0.000510996
0.000425797
6.87732e-05
0.000586749
0.000591859
5.89187e-05
0.000625431
0.000770174
5.32091e-05
0.000596268
0.00101782
5.23115e-05
0.000474489
0.00131089
6.30365e-05
0.00178902
8.214e-05
7.34547e-05
4.34274e-06
-0.000159778
0.000171429
2.32773e-05
-0.000187476
0.000279834
5.91686e-05
-8.98573e-05
0.000410432
8.55513e-05
3.99584e-05
0.000565397
9.0754e-05
0.000180045
0.000717704
8.1266e-05
0.000358273
0.000853924
7.00242e-05
0.000563923
0.00090324
6.64206e-05
0.000902099
0.000886759
7.77007e-05
0.00124968
0.000114732
0.00256106
5.53364e-05
0.000971032
2.31478e-05
2.06597e-05
0.00106935
2.06026e-05
6.55679e-06
0.00105
2.15043e-05
2.31566e-06
0.00103969
2.16881e-05
6.30814e-08
0.00103779
2.18193e-05
-2.19675e-06
0.00103779
2.18198e-05
-6.46467e-06
0.00103972
2.16891e-05
-2.06705e-05
0.00105011
2.15055e-05
-5.56707e-05
0.00106966
2.06328e-05
0.000970733
2.3213e-05
3.90587e-05
0.000939252
2.38729e-05
2.21818e-05
0.00110314
2.20131e-05
1.26824e-05
0.00107741
2.28764e-05
5.78118e-06
0.00106356
2.30197e-05
1.86871e-07
0.00106042
2.32584e-05
-5.42578e-06
0.00106045
2.32581e-05
-1.23817e-05
0.00106365
2.30123e-05
-2.19527e-05
0.00107756
2.28514e-05
-3.86057e-05
0.00110316
2.20464e-05
0.000939468
2.39237e-05
2.38736e-05
0.000914588
1.68515e-05
1.68436e-05
0.00111727
1.65492e-05
1.13566e-05
0.00109109
1.64026e-05
5.72333e-06
0.00107679
1.63304e-05
3.72721e-07
0.00107357
1.65392e-05
-5.00106e-06
0.00107363
1.65374e-05
-1.06908e-05
0.00107696
1.63193e-05
-1.63055e-05
0.00109142
1.63299e-05
-2.32598e-05
0.00111719
1.65731e-05
0.000915432
1.68609e-05
1.47419e-05
0.000896476
1.20184e-05
1.40821e-05
0.00111868
1.36352e-05
9.47726e-06
0.0010967
1.30661e-05
4.73447e-06
0.00108278
1.29151e-05
5.75677e-07
0.00107926
1.31605e-05
-3.61576e-06
0.00107939
1.31546e-05
-8.43746e-06
0.00108309
1.28952e-05
-1.32291e-05
0.00109742
1.29189e-05
-1.39509e-05
0.00111874
1.36226e-05
0.000898128
1.20402e-05
9.85437e-06
0.000882783
8.99533e-06
1.29198e-05
0.00111262
1.23271e-05
8.58604e-06
0.00109707
1.14106e-05
4.32212e-06
0.00108422
1.13725e-05
8.24651e-07
0.00108026
1.16784e-05
-2.71961e-06
0.00108047
1.1667e-05
-7.09786e-06
0.00108474
1.13411e-05
-1.16924e-05
0.00109837
1.11976e-05
-8.77026e-06
0.00111307
1.22374e-05
0.000885465
9.10346e-06
7.84645e-06
0.000872145
6.5586e-06
1.22804e-05
0.00110388
1.14568e-05
7.97875e-06
0.00109549
9.65147e-06
4.2287e-06
0.00108408
9.66682e-06
1.13338e-06
0.00107971
1.00006e-05
-2.04214e-06
0.00108006
9.94798e-06
-5.9373e-06
0.00108483
9.64964e-06
-1.04897e-05
0.00109733
9.523e-06
-6.45242e-06
0.00110508
1.1271e-05
0.000876096
6.73794e-06
7.31868e-06
0.000863548
4.62895e-06
1.19716e-05
0.0010948
1.08362e-05
7.49901e-06
0.00109395
7.97309e-06
4.2527e-06
0.00108386
8.22043e-06
1.51129e-06
0.00107913
8.41579e-06
-1.33592e-06
0.00107968
8.34958e-06
-4.80167e-06
0.00108487
8.21683e-06
-9.62194e-06
0.00109616
8.05069e-06
-5.5878e-06
0.00109696
1.06851e-05
0.000869172
4.74989e-06
7.39399e-06
0.000856069
3.27353e-06
1.17357e-05
0.0010864
1.02213e-05
7.24029e-06
0.00109275
6.70588e-06
4.45134e-06
0.0010836
7.44377e-06
1.98445e-06
0.00107868
7.35105e-06
-5.95681e-07
0.00107939
7.3307e-06
-3.74942e-06
0.00108503
7.41449e-06
-8.8632e-06
0.0010954
6.92902e-06
-5.18498e-06
0.00108936
1.02785e-05
0.000864028
3.28448e-06
7.76376e-06
0.000849016
2.3417e-06
1.16524e-05
0.00107892
9.66662e-06
7.36474e-06
0.00109157
5.97753e-06
4.88741e-06
0.00108335
6.94554e-06
2.60163e-06
0.00107835
6.59587e-06
1.66077e-07
0.00107923
6.57893e-06
-2.79035e-06
0.00108536
6.90063e-06
-7.98993e-06
0.00109497
6.05986e-06
-4.8615e-06
0.00108267
9.85558e-06
0.000860141
2.29855e-06
8.16771e-06
0.000842054
1.68069e-06
1.18054e-05
0.0010721
9.13821e-06
7.81679e-06
0.00109039
5.29446e-06
5.57162e-06
0.00108307
6.60021e-06
3.40343e-06
0.00107806
6.00729e-06
1.0279e-06
0.00107915
6.03211e-06
-1.83907e-06
0.00108578
6.63129e-06
-6.85481e-06
0.0010946
5.46572e-06
-4.45232e-06
0.00107722
9.29884e-06
0.000857163
1.70603e-06
8.73267e-06
0.000834899
1.11398e-06
1.21265e-05
0.00106586
8.62886e-06
8.51248e-06
0.00108932
4.59009e-06
6.50083e-06
0.00108265
6.385e-06
4.46142e-06
0.00107776
5.58491e-06
2.09519e-06
0.00107922
5.47835e-06
-7.43736e-07
0.00108635
6.38702e-06
-5.53461e-06
0.00109447
4.82567e-06
-3.9112e-06
0.00107314
8.69815e-06
0.000855009
1.31581e-06
9.37259e-06
0.000827513
4.89454e-07
1.2947e-05
0.00105944
8.32553e-06
9.66016e-06
0.00108815
4.16814e-06
7.81549e-06
0.00108214
6.1944e-06
5.85019e-06
0.00107756
5.11189e-06
3.47202e-06
0.00107953
4.97999e-06
5.61656e-07
0.00108727
6.1394e-06
-4.20234e-06
0.00109491
4.09602e-06
-3.2753e-06
0.00107016
8.28053e-06
0.000853848
9.52214e-07
1.037e-05
0.000819636
-1.87829e-07
1.44308e-05
0.00105226
8.36155e-06
1.14373e-05
0.00108677
3.88011e-06
9.60181e-06
0.00108167
6.03673e-06
7.63928e-06
0.0010776
4.66922e-06
5.22432e-06
0.00107999
4.653e-06
2.12615e-06
0.00108849
6.01326e-06
-2.75913e-06
0.00109581
3.63246e-06
-2.38687e-06
0.00106784
8.01581e-06
0.000853954
6.54313e-07
1.17658e-05
0.000810348
-4.45159e-07
1.5883e-05
0.00104522
7.94769e-06
1.36513e-05
0.0010849
3.61483e-06
1.18905e-05
0.00108113
5.95541e-06
9.97846e-06
0.00107772
4.38737e-06
7.46442e-06
0.00108062
4.34253e-06
4.10107e-06
0.00109002
5.92277e-06
-9.60836e-07
0.00109718
3.23946e-06
-1.27066e-06
0.0010663
7.72799e-06
0.000855502
4.34485e-07
1.36139e-05
0.000798819
-3.88064e-07
1.76676e-05
0.00103872
7.28883e-06
1.64185e-05
0.00108244
3.37327e-06
1.48475e-05
0.00108043
5.86982e-06
1.29962e-05
0.00107791
4.15565e-06
1.03541e-05
0.00108145
4.06584e-06
6.67122e-06
0.00109189
5.86536e-06
1.33274e-06
0.00109914
2.8766e-06
2.98609e-08
0.00106594
7.36193e-06
0.000858527
3.47433e-07
1.60575e-05
0.000784515
-2.55158e-07
2.04628e-05
0.00103216
6.88799e-06
2.00967e-05
0.00107945
3.23272e-06
1.87213e-05
0.00107952
5.81083e-06
1.69187e-05
0.00107813
4.02855e-06
1.40918e-05
0.0010825
3.85858e-06
9.98268e-06
0.00109416
5.83075e-06
4.15155e-06
0.00110187
2.59461e-06
1.5995e-06
0.00106696
7.04944e-06
0.000863172
3.91105e-07
1.9184e-05
0.00076673
1.4365e-08
2.43059e-05
0.0010251
6.59033e-06
2.48877e-05
0.00107585
3.19195e-06
2.37715e-05
0.00107832
5.81571e-06
2.2007e-05
0.00107833
4.01621e-06
1.89206e-05
0.00108385
3.7245e-06
1.42309e-05
0.00109698
5.81505e-06
7.66785e-06
0.00110558
2.39887e-06
3.58958e-06
0.00106959
6.80107e-06
0.000869818
5.57285e-07
2.31702e-05
0.000744674
4.18219e-07
2.95856e-05
0.00101686
6.52387e-06
3.11518e-05
0.00107151
3.3286e-06
3.03553e-05
0.00107671
5.93205e-06
2.86072e-05
0.00107852
4.1363e-06
2.51669e-05
0.0010856
3.68326e-06
1.97106e-05
0.00110056
5.84396e-06
1.22014e-05
0.0011105
2.30584e-06
6.11205e-06
0.00107444
6.54453e-06
0.000878971
8.78495e-07
2.81691e-05
0.000717373
1.06703e-06
3.65994e-05
0.00100667
6.69708e-06
3.93012e-05
0.00106622
3.71585e-06
3.89016e-05
0.00107459
6.20253e-06
3.71487e-05
0.00107872
4.42026e-06
3.3249e-05
0.00108787
3.78198e-06
2.68097e-05
0.00110512
5.96994e-06
1.79748e-05
0.00111702
2.36198e-06
9.31702e-06
0.00108208
6.40225e-06
0.000891381
1.33927e-06
3.43498e-05
0.000683762
2.07302e-06
4.58791e-05
0.000993392
7.2924e-06
4.98736e-05
0.00105978
4.43846e-06
4.99512e-05
0.00107187
6.70913e-06
4.81815e-05
0.00107895
4.9402e-06
4.37105e-05
0.00109081
4.07177e-06
3.60169e-05
0.00111099
6.23628e-06
2.53462e-05
0.00112567
2.64492e-06
1.34588e-05
0.00109319
6.47048e-06
0.000908097
1.9903e-06
4.1855e-05
0.000642712
3.62512e-06
5.80008e-05
0.000975459
8.54806e-06
6.35411e-05
0.00105186
5.66972e-06
6.41939e-05
0.00106843
7.59622e-06
6.24288e-05
0.00107916
5.81956e-06
5.72934e-05
0.00109456
4.68248e-06
4.80358e-05
0.00111851
6.73447e-06
3.49302e-05
0.00113712
3.19607e-06
1.88884e-05
0.00110875
6.78154e-06
0.000930494
2.96188e-06
5.07216e-05
0.000592944
6.07854e-06
7.33999e-05
0.000950981
1.06874e-05
8.10491e-05
0.0010419
7.59002e-06
8.24518e-05
0.0010641
9.00863e-06
8.0797e-05
0.00107924
7.20766e-06
7.49707e-05
0.0010992
5.72945e-06
6.38576e-05
0.00112805
7.60219e-06
4.75662e-05
0.00115225
4.10107e-06
2.6097e-05
0.00113016
7.44214e-06
0.000960457
4.40317e-06
6.0753e-05
0.00053305
9.87433e-06
9.22778e-05
0.000917691
1.39697e-05
0.000103199
0.00102878
1.0492e-05
0.00010573
0.00105857
1.11715e-05
0.000104453
0.00107891
9.32573e-06
9.80649e-05
0.00110467
7.41472e-06
8.48629e-05
0.00113998
8.99196e-06
6.44877e-05
0.00117209
5.53833e-06
3.58483e-05
0.00115933
8.61997e-06
0.00100067
6.51795e-06
7.12585e-05
0.000461873
1.52826e-05
0.000114488
0.000872502
1.87658e-05
0.000130719
0.0010105
1.47166e-05
0.000135223
0.00105111
1.44158e-05
0.000134906
0.00107758
1.24371e-05
0.000128418
0.00111059
1.0038e-05
0.00011309
0.0011545
1.11413e-05
8.76225e-05
0.00119784
7.74145e-06
4.93689e-05
0.00119896
1.05569e-05
0.00105511
9.59907e-06
8.08874e-05
0.000379197
2.18586e-05
0.000139005
0.000811409
2.52557e-05
0.000164011
0.000983403
2.07611e-05
0.000172322
0.00103999
1.92768e-05
0.00017409
0.00107419
1.69364e-05
0.000168544
0.00111601
1.39267e-05
0.000151589
0.00117136
1.43547e-05
0.000120124
0.00123066
1.10031e-05
6.8913e-05
0.00125275
1.35804e-05
0.00113013
1.40355e-05
8.7047e-05
0.000286625
2.80182e-05
0.000162942
0.000729921
3.28952e-05
0.00020242
0.000941359
2.90379e-05
0.000218444
0.00102156
2.64729e-05
0.00022456
0.00106666
2.337e-05
0.000222004
0.00111901
1.94912e-05
0.000205
0.00118933
1.89667e-05
0.000167268
0.00127123
1.56723e-05
9.82249e-05
0.00132615
1.81291e-05
0.00123608
2.03122e-05
8.5742e-05
0.000190945
3.07011e-05
0.000181024
0.000624611
3.94747e-05
0.000243224
0.000875235
3.94194e-05
0.000274312
0.000988844
3.69219e-05
0.000289382
0.00105105
3.25154e-05
0.000293663
0.00111623
2.71443e-05
0.000280369
0.0012053
2.52112e-05
0.000238294
0.00131837
2.19438e-05
0.000147199
0.00142438
2.4666e-05
0.00139388
2.9083e-05
7.11698e-05
0.000116206
2.92627e-05
0.000187402
0.000499305
4.42104e-05
0.000281735
0.00077679
5.13938e-05
0.000339201
0.000931379
5.06833e-05
0.000371793
0.00102051
4.44776e-05
0.000389936
0.00110245
3.65158e-05
0.000388327
0.00121304
3.24077e-05
0.000348763
0.00136693
2.90979e-05
0.000231711
0.00155321
3.30705e-05
0.00164143
4.08118e-05
5.05767e-05
7.48263e-05
1.90507e-05
0.00017647
0.00037272
4.6798e-05
0.000305304
0.000650806
6.33281e-05
0.000404319
0.000840382
6.61517e-05
0.0004719
0.00096373
5.79669e-05
0.000517494
0.00106986
4.59123e-05
0.000544155
0.00120124
3.83358e-05
0.000519545
0.00140931
3.45427e-05
0.000418871
0.00167492
4.19943e-05
0.00208672
5.57212e-05
6.63116e-05
-1.55036e-05
2.82937e-05
0.000178944
3.00452e-05
0.00025328
0.000317655
5.61066e-05
0.000515122
0.000452795
6.37326e-05
0.000727024
0.000571721
5.60873e-05
0.000879436
0.000672012
4.13794e-05
0.00100942
0.000768291
3.02066e-05
0.00114476
0.00080027
2.5736e-05
0.001418
0.000796516
3.87091e-05
0.00171767
6.88205e-05
0.00292916
5.74572e-05
0.000957304
8.38843e-06
2.15594e-05
0.00105001
6.49473e-06
6.48313e-06
0.00103016
6.42509e-06
2.18195e-06
0.00101956
6.43864e-06
5.62927e-08
0.0010175
6.45404e-06
-2.07771e-06
0.00101751
6.45414e-06
-6.40675e-06
0.00101958
6.43923e-06
-2.16192e-05
0.00103029
6.42859e-06
-5.79023e-05
0.0010504
6.51462e-06
0.000956906
8.40694e-06
4.09099e-05
0.000926949
1.33282e-05
2.30413e-05
0.00107741
1.2495e-05
1.25846e-05
0.00105111
1.24055e-05
5.75865e-06
0.00103696
1.24665e-05
1.71152e-07
0.00103384
1.25246e-05
-5.44075e-06
0.00103387
1.25228e-05
-1.23423e-05
0.00103706
1.24617e-05
-2.28364e-05
0.00105125
1.24066e-05
-4.02754e-05
0.00107738
1.25203e-05
0.000927211
1.33485e-05
2.48177e-05
0.00090743
1.15648e-05
1.66909e-05
0.00109108
1.10229e-05
1.09672e-05
0.00106261
1.06409e-05
5.63272e-06
0.00104798
1.06638e-05
3.67911e-07
0.00104493
1.07265e-05
-4.92239e-06
0.001045
1.07232e-05
-1.03287e-05
0.00104815
1.06537e-05
-1.61459e-05
0.00106279
1.06235e-05
-2.41524e-05
0.00109097
1.10129e-05
0.000908349
1.15776e-05
1.44341e-05
0.00089574
9.28549e-06
1.35308e-05
0.00109666
8.97275e-06
9.03553e-06
0.00107165
8.54224e-06
4.56944e-06
0.00105688
8.49414e-06
5.74064e-07
0.00105353
8.57361e-06
-3.45758e-06
0.00105363
8.56844e-06
-8.01291e-06
0.00105714
8.47722e-06
-1.26305e-05
0.00107185
8.4963e-06
-1.36252e-05
0.00109667
8.93137e-06
0.000897443
9.32958e-06
7.92475e-06
0.000888998
7.82301e-06
1.19274e-05
0.00109713
7.86885e-06
8.26671e-06
0.00107916
7.56665e-06
4.16441e-06
0.00106479
7.57093e-06
8.2051e-07
0.00106085
7.71763e-06
-2.5819e-06
0.001061
7.7107e-06
-6.83246e-06
0.00106519
7.55177e-06
-1.07783e-05
0.00107949
7.51701e-06
-6.85691e-06
0.00109719
7.80477e-06
0.000891832
7.86504e-06
4.46336e-06
0.000884623
6.48063e-06
1.03575e-05
0.00109572
6.98598e-06
7.55269e-06
0.00108503
6.60457e-06
4.04292e-06
0.00107132
6.66519e-06
1.12148e-06
0.00106692
6.86938e-06
-1.90341e-06
0.00106713
6.85787e-06
-5.63576e-06
0.00107193
6.65371e-06
-8.77969e-06
0.00108561
6.56267e-06
-3.04624e-06
0.00109582
6.92085e-06
0.000888981
6.55116e-06
2.85539e-06
0.000881168
5.23815e-06
9.14985e-06
0.0010941
6.17668e-06
6.75473e-06
0.00108994
5.47537e-06
3.97788e-06
0.00107672
5.60548e-06
1.49108e-06
0.00107202
5.80935e-06
-1.12958e-06
0.00107232
5.79365e-06
-4.21762e-06
0.00107764
5.60858e-06
-6.87067e-06
0.00109087
5.45453e-06
-1.04741e-06
0.00109456
6.13449e-06
0.000887318
5.37197e-06
2.1959e-06
0.000877906
4.34984e-06
8.35419e-06
0.00109267
5.49957e-06
6.18529e-06
0.00109435
4.46989e-06
4.0989e-06
0.0010815
4.76995e-06
1.95522e-06
0.00107661
4.922e-06
-3.2621e-07
0.00107703
4.90939e-06
-2.85375e-06
0.00108281
4.78279e-06
-5.35734e-06
0.00109583
4.4737e-06
1.00326e-07
0.00109388
5.50692e-06
0.000886178
4.53172e-06
1.9931e-06
0.000874559
3.70652e-06
7.94359e-06
0.00109135
5.05627e-06
6.03838e-06
0.00109849
3.75563e-06
4.48016e-06
0.0010858
4.22201e-06
2.56045e-06
0.00108084
4.29541e-06
4.81612e-07
0.00108142
4.28248e-06
-1.61276e-06
0.00108758
4.23199e-06
-4.03027e-06
0.00110059
3.72832e-06
8.82853e-07
0.00109376
5.06892e-06
0.0008854
3.96669e-06
2.10429e-06
0.000870919
3.22725e-06
7.9051e-06
0.00108992
4.7702e-06
6.20531e-06
0.0011023
3.20731e-06
5.10343e-06
0.00108967
3.84636e-06
3.33799e-06
0.00108479
3.83724e-06
1.36907e-06
0.00108561
3.82374e-06
-4.00674e-07
0.00109213
3.86724e-06
-2.78804e-06
0.00110528
3.1728e-06
1.51432e-06
0.00109401
4.76657e-06
0.000885055
3.5726e-06
2.48515e-06
0.000866689
2.87047e-06
8.0049e-06
0.00108851
4.53128e-06
6.62373e-06
0.00110558
2.70107e-06
5.97313e-06
0.00109315
3.56559e-06
4.38403e-06
0.00108852
3.46739e-06
2.45742e-06
0.0010896
3.43335e-06
9.42737e-07
0.00109646
3.58316e-06
-1.43087e-06
0.00110983
2.6636e-06
2.14227e-06
0.00109466
4.47891e-06
0.000885171
3.35101e-06
3.13244e-06
0.000861532
2.52612e-06
8.50085e-06
0.00108708
4.40453e-06
7.47127e-06
0.00110845
2.34038e-06
7.19885e-06
0.00109627
3.36403e-06
5.72263e-06
0.00109198
3.14598e-06
3.8436e-06
0.0010934
3.07889e-06
2.50391e-06
0.00110062
3.33597e-06
3.55062e-08
0.00111423
2.18456e-06
2.79508e-06
0.00109594
4.26296e-06
0.000885743
3.18481e-06
4.06407e-06
0.000855112
2.18138e-06
9.54348e-06
0.00108549
4.483e-06
8.82746e-06
0.00111096
2.10031e-06
8.85198e-06
0.00109907
3.22735e-06
7.43289e-06
0.00109521
2.87038e-06
5.5779e-06
0.00109711
2.8069e-06
4.26592e-06
0.00110478
3.1757e-06
1.53059e-06
0.00111878
1.83248e-06
3.57229e-06
0.00109775
4.17569e-06
0.000887009
2.97041e-06
5.50263e-06
0.000847158
2.02006e-06
1.0911e-05
0.00108355
4.49609e-06
1.06479e-05
0.00111298
1.87107e-06
1.09992e-05
0.00110157
3.1276e-06
9.66777e-06
0.00109828
2.66491e-06
7.76707e-06
0.00110079
2.58395e-06
6.39428e-06
0.00110903
3.06412e-06
3.35266e-06
0.00112355
1.52666e-06
4.50568e-06
0.00110023
4.11406e-06
0.000889161
2.79925e-06
7.466e-06
0.000837342
1.97692e-06
1.28748e-05
0.00108105
4.39986e-06
1.3123e-05
0.00111444
1.68468e-06
1.37988e-05
0.00110373
3.04492e-06
1.2565e-05
0.00110119
2.50094e-06
1.0562e-05
0.00110448
2.39701e-06
9.03976e-06
0.00111345
2.98394e-06
5.58809e-06
0.00112864
1.24889e-06
5.60151e-06
0.00110355
4.0388e-06
0.000892438
2.68281e-06
9.93315e-06
0.000825176
1.9955e-06
1.56413e-05
0.00107787
4.37301e-06
1.64676e-05
0.00111528
1.58692e-06
1.74503e-05
0.00110558
2.99728e-06
1.63226e-05
0.00110397
2.39705e-06
1.41544e-05
0.00110827
2.25639e-06
1.23301e-05
0.00111819
2.93885e-06
8.27915e-06
0.00113427
1.03447e-06
6.97419e-06
0.00110795
3.97228e-06
0.000897204
2.61214e-06
1.30654e-05
0.00081005
2.09469e-06
1.94186e-05
0.00107373
4.39121e-06
2.09033e-05
0.00111541
1.59374e-06
2.22046e-05
0.00110712
3.00264e-06
2.11882e-05
0.00110665
2.36933e-06
1.87779e-05
0.00111225
2.17305e-06
1.64655e-05
0.0011234
2.93507e-06
1.16031e-05
0.00114066
8.93147e-07
8.7255e-06
0.00111371
3.93886e-06
0.000903895
2.60515e-06
1.69939e-05
0.000791196
2.29914e-06
2.45018e-05
0.00106824
4.52471e-06
2.67437e-05
0.00111476
1.75571e-06
2.83873e-05
0.00110833
3.09698e-06
2.74775e-05
0.00110928
2.44008e-06
2.47323e-05
0.00111654
2.16354e-06
2.17268e-05
0.00112928
2.98435e-06
1.57989e-05
0.00114807
8.35033e-07
1.09452e-05
0.0011212
3.93372e-06
0.000913057
2.67612e-06
2.18976e-05
0.000767687
2.70133e-06
3.11862e-05
0.00106086
4.8099e-06
3.43603e-05
0.00111321
2.11694e-06
3.63894e-05
0.0011092
3.32202e-06
3.55805e-05
0.00111189
2.64055e-06
3.24023e-05
0.00112126
2.25943e-06
2.84718e-05
0.00113608
3.1168e-06
2.11596e-05
0.00115689
8.82032e-07
1.38277e-05
0.00113097
3.98068e-06
0.000925379
2.85998e-06
2.79243e-05
0.000738454
3.40536e-06
3.98896e-05
0.00105087
5.34454e-06
4.42128e-05
0.0011106
2.74637e-06
4.66916e-05
0.00110971
3.74017e-06
4.59992e-05
0.00111452
3.02039e-06
4.22907e-05
0.00112656
2.50431e-06
3.71617e-05
0.0011441
3.36802e-06
2.80599e-05
0.00116757
1.08017e-06
1.76021e-05
0.00114379
4.13129e-06
0.000941803
3.18506e-06
3.51492e-05
0.000702405
4.55025e-06
5.10445e-05
0.00103726
6.27536e-06
5.68443e-05
0.00110674
3.74928e-06
5.98793e-05
0.00110984
4.45108e-06
5.93631e-05
0.00111722
3.66048e-06
5.50677e-05
0.00113258
2.97056e-06
4.84418e-05
0.00115369
3.79664e-06
3.70175e-05
0.00118074
1.47588e-06
2.25572e-05
0.00116061
4.4416e-06
0.000963624
3.71543e-06
4.35745e-05
0.000658612
6.32177e-06
6.50798e-05
0.00101869
7.7764e-06
7.28903e-05
0.00110128
5.2519e-06
7.66522e-05
0.00110953
5.5741e-06
7.64672e-05
0.00111997
4.66466e-06
7.16016e-05
0.00113945
3.74952e-06
6.32043e-05
0.00116522
4.48177e-06
4.87868e-05
0.00119715
2.12625e-06
2.91645e-05
0.00118273
4.9643e-06
0.000992656
4.5528e-06
5.30055e-05
0.000606565
8.9406e-06
8.22053e-05
0.000993446
1.00305e-05
9.29842e-05
0.00109362
7.39838e-06
9.78145e-05
0.00110864
7.25513e-06
9.82923e-05
0.00112267
6.16931e-06
9.30602e-05
0.00114716
4.95663e-06
8.26921e-05
0.00117908
5.52105e-06
6.45003e-05
0.00121778
3.1257e-06
3.81216e-05
0.00121196
5.78876e-06
0.0010315
5.8099e-06
6.291e-05
0.000546415
1.25465e-05
0.000102307
0.000959589
1.32434e-05
0.000117682
0.00108262
1.03546e-05
0.000124292
0.00110679
9.6766e-06
0.000126047
0.00112503
8.34077e-06
0.000121016
0.0011555
6.74527e-06
0.000108726
0.00119551
7.02922e-06
8.59024e-05
0.00124377
4.58852e-06
5.05456e-05
0.00125087
7.03197e-06
0.00108404
7.61512e-06
7.23864e-05
0.000479004
1.69085e-05
0.000124542
0.000915183
1.75223e-05
0.000147168
0.00106644
1.43278e-05
0.000157034
0.00110315
1.3061e-05
0.000161206
0.00112645
1.1359e-05
0.000157565
0.00116384
9.2525e-06
0.000143985
0.00121435
9.10782e-06
0.000115835
0.00127633
6.61e-06
6.85194e-05
0.00130297
8.80705e-06
0.00115651
1.00981e-05
8.01042e-05
0.000405785
2.11657e-05
0.000147205
0.000858342
2.26545e-05
0.000180985
0.00104227
1.94486e-05
0.000196853