/*--------------------------------*- C++ -*----------------------------------*\
| =========                 |                                                 |
| \\      /  F ield         | OpenFOAM: The Open Source CFD Toolbox           |
|  \\    /   O peration     | Version:  4.1                                   |
|   \\  /    A nd           | Web:      www.OpenFOAM.org                      |
|    \\/     M anipulation  |                                                 |
\*---------------------------------------------------------------------------*/
FoamFile
{
    version     2.0;
    format      ascii;
    class       volVectorField;
    location    "1600";
    object      U;
}
// * * * * * * * * * * * * * * * * * * * * * * * * * * * * * * * * * * * * * //

dimensions      [0 1 -1 0 0 0 0];

internalField   nonuniform List<vector> 
12000
(
(0.0919785 -0.00968322 0.00967872)
(0.0965739 -0.00182523 0.0106682)
(0.0959911 -0.00136579 0.0110505)
(0.0956031 -0.000562369 0.0110645)
(0.0955066 -0.000151444 0.0110922)
(0.0955068 0.00013505 0.0110923)
(0.0956034 0.00054715 0.0110655)
(0.0959915 0.00135161 0.0110541)
(0.096575 0.00181125 0.0106733)
(0.0919813 0.00969828 0.00968393)
(0.0861808 -0.00378211 0.00377127)
(0.0951055 -0.0025595 0.00522687)
(0.0937447 -0.00199163 0.00560535)
(0.0926744 -0.000892427 0.00556772)
(0.0923392 -0.000278868 0.00559773)
(0.0923403 0.000237764 0.0055977)
(0.0926768 0.000853554 0.00556695)
(0.0937469 0.00195157 0.00560324)
(0.0951069 0.00251382 0.00524494)
(0.0861823 0.00378879 0.00378911)
(0.0822342 0.000811151 -0.000829393)
(0.0930931 -0.00257827 0.000171151)
(0.0919271 -0.00167306 0.000445025)
(0.0907071 -0.000804949 0.000436053)
(0.0902294 -0.00030069 0.000470728)
(0.0902324 0.000228295 0.000470581)
(0.0907145 0.000737503 0.000433725)
(0.0919333 0.00160709 0.000434685)
(0.0931009 0.00252005 0.00017104)
(0.0822814 -0.000835324 -0.000827033)
(0.0794889 0.00273273 -0.00276065)
(0.0906492 -0.00252894 -0.00248902)
(0.0901619 -0.00120451 -0.00235832)
(0.089165 -0.000680629 -0.0022803)
(0.0886579 -0.000301819 -0.00223185)
(0.0886634 0.000190932 -0.00223213)
(0.0891787 0.000578665 -0.0022834)
(0.0901649 0.00110811 -0.002373)
(0.0906685 0.00245068 -0.00249553)
(0.0795929 -0.00278046 -0.00275754)
(0.0780573 0.00321493 -0.00325606)
(0.0888842 -0.00244195 -0.00354542)
(0.0891654 -0.000814111 -0.00357493)
(0.0884077 -0.00063705 -0.00339419)
(0.0878901 -0.000312955 -0.00333273)
(0.0878983 0.000152152 -0.00333321)
(0.0884313 0.000490573 -0.00339802)
(0.0891651 0.000678244 -0.0035925)
(0.088919 0.00233862 -0.00354246)
(0.0782391 -0.00329162 -0.00325397)
(0.0772612 0.00310174 -0.00315965)
(0.0877645 -0.00230408 -0.00379716)
(0.0887479 -0.00049206 -0.00399537)
(0.0881333 -0.000634431 -0.00372267)
(0.0875902 -0.000323129 -0.00366078)
(0.0876026 9.62032e-05 -0.00366237)
(0.08817 0.000427101 -0.00373074)
(0.0887413 0.000307613 -0.00402869)
(0.0878163 0.00216864 -0.00379209)
(0.0775479 -0.00321029 -0.00315765)
(0.07656 0.00277612 -0.00285404)
(0.0869611 -0.00215248 -0.00368241)
(0.0885021 -0.000245228 -0.00405257)
(0.0879218 -0.000652202 -0.00372605)
(0.087383 -0.000328255 -0.00366826)
(0.0873911 1.45374e-05 -0.00367623)
(0.0879873 0.000364706 -0.003733)
(0.0885298 -6.50058e-06 -0.00409223)
(0.0870187 0.00197075 -0.00368195)
(0.0769889 -0.00292032 -0.00285064)
(0.0757931 0.00240284 -0.00250686)
(0.0862818 -0.00201765 -0.00343343)
(0.0882491 -9.02037e-05 -0.00395804)
(0.0876933 -0.000694909 -0.00357589)
(0.0871748 -0.000336829 -0.00353164)
(0.0871878 -8.81315e-05 -0.00354278)
(0.0877928 0.000307378 -0.00357965)
(0.0883391 -0.000253554 -0.00399337)
(0.0863666 0.00177121 -0.00342961)
(0.0764112 -0.00258914 -0.00249782)
(0.0749889 0.00203786 -0.00217715)
(0.0856655 -0.00190759 -0.00314373)
(0.0879823 -1.57244e-05 -0.00380456)
(0.0874353 -0.000760306 -0.00336498)
(0.086955 -0.000358987 -0.00334074)
(0.0869852 -0.000208464 -0.00335204)
(0.0875786 0.000247407 -0.00336657)
(0.0881804 -0.000445608 -0.00382938)
(0.0858179 0.00157388 -0.00313177)
(0.0758547 -0.00228154 -0.00216261)
(0.0741708 0.00170051 -0.00188591)
(0.085124 -0.0018182 -0.00286018)
(0.0877746 -8.4418e-06 -0.00360084)
(0.08717 -0.000856379 -0.00314992)
(0.0867482 -0.000405283 -0.00314474)
(0.086792 -0.000351494 -0.00315841)
(0.0873612 0.000171634 -0.00315247)
(0.0880469 -0.000601687 -0.00365194)
(0.0853577 0.00137785 -0.00284)
(0.075364 -0.00201956 -0.00186605)
(0.0733351 0.00139262 -0.00163851)
(0.0846393 -0.00175656 -0.00259188)
(0.0875238 -6.34646e-05 -0.00340331)
(0.0869048 -0.000984058 -0.00294967)
(0.086555 -0.000478011 -0.00295477)
(0.0866436 -0.000517055 -0.00296305)
(0.0871861 7.29775e-05 -0.00293507)
(0.0880067 -0.000740167 -0.00342941)
(0.0849423 0.00116983 -0.00256241)
(0.0749609 -0.00181058 -0.00161311)
(0.0724412 0.00109987 -0.00142456)
(0.0841806 -0.001725 -0.00239464)
(0.0872638 -0.000160459 -0.00321793)
(0.0866502 -0.00113754 -0.00276)
(0.0863983 -0.000590461 -0.00276538)
(0.0864821 -0.000717543 -0.00278769)
(0.0870008 -5.97481e-05 -0.00273382)
(0.0879486 -0.000886055 -0.00322164)
(0.0845714 0.000944314 -0.00232291)
(0.0746417 -0.00164224 -0.00139068)
(0.071444 0.000817373 -0.00124293)
(0.0837721 -0.00174277 -0.00222214)
(0.0869746 -0.00030258 -0.00304641)
(0.0863705 -0.00133312 -0.00258921)
(0.0862057 -0.000762331 -0.00260262)
(0.086354 -0.000965892 -0.00262311)
(0.0868419 -0.000242999 -0.00255286)
(0.0879178 -0.00105714 -0.00303524)
(0.0842967 0.000708403 -0.00212203)
(0.0743983 -0.00150557 -0.00119168)
(0.0703505 0.000544456 -0.00110325)
(0.0834249 -0.00184159 -0.00196068)
(0.086651 -0.000542002 -0.00286794)
(0.0860777 -0.00159048 -0.00242514)
(0.0860217 -0.00100883 -0.0024469)
(0.0862501 -0.00127263 -0.00247498)
(0.0867117 -0.000489951 -0.00239285)
(0.0879347 -0.00126027 -0.00286085)
(0.08413 0.000456215 -0.00193622)
(0.0742413 -0.00140359 -0.00101641)
(0.0691048 0.000260649 -0.000991254)
(0.0829638 -0.00201479 -0.00173314)
(0.0862975 -0.000886853 -0.00269108)
(0.0857691 -0.00192632 -0.00227934)
(0.0858296 -0.00135012 -0.0023072)
(0.086172 -0.00165754 -0.00234428)
(0.0866312 -0.000815965 -0.00225097)
(0.0880002 -0.0015112 -0.00270292)
(0.0840788 0.00017521 -0.00176427)
(0.0741972 -0.00133374 -0.00086041)
(0.0676511 -6.08111e-05 -0.000886715)
(0.0824457 -0.00228065 -0.00154779)
(0.0858942 -0.00133573 -0.00252489)
(0.0854369 -0.00236928 -0.00215742)
(0.0856355 -0.00180929 -0.00218576)
(0.0861252 -0.00214218 -0.00222795)
(0.0866146 -0.00124252 -0.00212801)
(0.0881428 -0.00183561 -0.00256016)
(0.0841597 -0.000150136 -0.00162971)
(0.0742926 -0.00129629 -0.000722155)
(0.0658884 -0.000429492 -0.000788688)
(0.0818041 -0.00266033 -0.00139025)
(0.0854239 -0.0019211 -0.00235988)
(0.0850739 -0.00295093 -0.0020509)
(0.0854378 -0.00241691 -0.00207443)
(0.0861154 -0.00275613 -0.00211862)
(0.0866772 -0.00179823 -0.00201399)
(0.0883795 -0.002259 -0.00242922)
(0.084422 -0.000534781 -0.00151936)
(0.0745627 -0.00129952 -0.000599913)
(0.0637063 -0.000859877 -0.000689508)
(0.0810001 -0.00318325 -0.00125112)
(0.0848604 -0.00267936 -0.00219963)
(0.0846709 -0.00370932 -0.00195423)
(0.0852318 -0.00321325 -0.00196526)
(0.0861424 -0.0035393 -0.0020122)
(0.0868281 -0.0025215 -0.00190539)
(0.0887394 -0.00280954 -0.00229943)
(0.0848878 -0.00100255 -0.00141062)
(0.0750565 -0.00135152 -0.000486848)
(0.0609658 -0.00136316 -0.000581305)
(0.0799642 -0.00388495 -0.00111198)
(0.0841784 -0.00366273 -0.00203499)
(0.0842167 -0.00469548 -0.00185908)
(0.0850074 -0.00425183 -0.00185234)
(0.0862066 -0.0045454 -0.00190399)
(0.0870863 -0.00346183 -0.00179912)
(0.0892536 -0.00353115 -0.0021696)
(0.0855933 -0.0015863 -0.00130352)
(0.0758287 -0.00145898 -0.000372831)
(0.0574952 -0.00194732 -0.000448271)
(0.0785547 -0.00479972 -0.000961359)
(0.0833321 -0.00493392 -0.00185232)
(0.0836841 -0.00597615 -0.00175627)
(0.0847437 -0.00559915 -0.00173095)
(0.0863025 -0.00584115 -0.00178583)
(0.0874676 -0.00468447 -0.00168641)
(0.0899525 -0.00448354 -0.00203314)
(0.0866063 -0.002327 -0.00119288)
(0.076949 -0.0016342 -0.000248266)
(0.0530898 -0.00260859 -0.00026879)
(0.0766009 -0.00596188 -0.000774626)
(0.0822479 -0.00656767 -0.001639)
(0.0830375 -0.00763279 -0.00163478)
(0.0844118 -0.00733726 -0.00159414)
(0.0864093 -0.00751235 -0.00164986)
(0.0879809 -0.00627303 -0.0015597)
(0.0908701 -0.005741 -0.00187604)
(0.0880011 -0.0032814 -0.00107001)
(0.0785104 -0.00190039 -0.000104614)
(0.0475203 -0.00331634 -2.02559e-05)
(0.0738147 -0.00738518 -0.000518653)
(0.0808187 -0.00863928 -0.00137035)
(0.0822237 -0.00976152 -0.00147311)
(0.0839683 -0.00956645 -0.00142904)
(0.0865038 -0.00967039 -0.00148131)
(0.0886312 -0.008343 -0.00140558)
(0.0920438 -0.00741121 -0.00168639)
(0.0898687 -0.00453021 -0.000922872)
(0.0806454 -0.00228985 7.14282e-05)
(0.0405803 -0.00399349 0.000311803)
(0.0698129 -0.00903529 -0.000156323)
(0.0788399 -0.0111994 -0.00101573)
(0.0811399 -0.0124685 -0.00124423)
(0.0833366 -0.0124084 -0.00121747)
(0.0865107 -0.0124589 -0.0012641)
(0.089404 -0.011053 -0.00120471)
(0.0935175 -0.00965321 -0.00145003)
(0.0923282 -0.00619431 -0.000735774)
(0.0835362 -0.00285538 0.000296702)
(0.0321558 -0.00448665 0.000718408)
(0.0640883 -0.0107742 0.000326817)
(0.0759938 -0.0142128 -0.00053697)
(0.0796167 -0.01585 -0.000910302)
(0.0823992 -0.0160087 -0.000932688)
(0.0863244 -0.0160639 -0.000976182)
(0.0902341 -0.0146238 -0.000934141)
(0.0953283 -0.0127048 -0.00114449)
(0.0955342 -0.00846288 -0.000483989)
(0.0874608 -0.0036761 0.000597127)
(0.0223431 -0.0045313 0.00113121)
(0.0561135 -0.0122869 0.000899883)
(0.0716865 -0.0174652 8.98774e-05)
(0.0773011 -0.0199367 -0.000420982)
(0.0809353 -0.0205327 -0.000532656)
(0.0857542 -0.0207279 -0.000584273)
(0.0909945 -0.0193646 -0.000561011)
(0.0974946 -0.0169316 -0.000739253)
(0.0997029 -0.0116569 -0.000135153)
(0.0928205 -0.0049087 0.00100643)
(0.011653 -0.00368599 0.00131806)
(0.0455375 -0.0129818 0.001421)
(0.0651118 -0.0204334 0.000876758)
(0.0735667 -0.0245865 0.000305487)
(0.0785584 -0.0261528 4.80689e-05)
(0.0844724 -0.0267795 -5.13248e-05)
(0.0913999 -0.0257226 -4.75155e-05)
(0.0999259 -0.0229108 -0.000192425)
(0.105093 -0.0163188 0.000358644)
(0.100415 -0.00677034 0.00157888)
(0.00117034 -0.00117619 0.00122491)
(0.0321843 -0.0119298 0.00159248)
(0.0549549 -0.0221922 0.00168454)
(0.0671605 -0.0292638 0.00134067)
(0.0744955 -0.032872 0.000945739)
(0.081979 -0.0345786 0.000702055)
(0.0910427 -0.0343005 0.000650428)
(0.102467 -0.0315656 0.000541712)
(0.112116 -0.0235296 0.0010662)
(0.111318 -0.00999148 0.0023924)
(-0.00354274 0.00197396 0.00172452)
(0.0181057 -0.0081933 0.00202289)
(0.0406225 -0.0214593 0.00261376)
(0.0564696 -0.0329891 0.00266253)
(0.067276 -0.0404253 0.00224096)
(0.0771446 -0.0445562 0.00179369)
(0.0888177 -0.0459868 0.00159687)
(0.104191 -0.0443175 0.00150876)
(0.12053 -0.0353385 0.00205349)
(0.129374 -0.015138 0.00357342)
(-0.0063908 0.000157003 0.000505785)
(0.000453416 -0.00477225 0.00219359)
(0.0200495 -0.0172425 0.00413252)
(0.039097 -0.0328449 0.00483676)
(0.0546209 -0.0462923 0.00440038)
(0.0685952 -0.055876 0.00352276)
(0.0839419 -0.061644 0.0029571)
(0.104767 -0.0634145 0.00274534)
(0.130468 -0.0562478 0.00342098)
(0.157042 -0.0283351 0.00530595)
(-0.0119526 -0.00410149 -0.00208139)
(-0.013984 -0.0135031 -0.00219847)
(-0.0033657 -0.0222022 0.000924812)
(0.0132864 -0.0333428 0.00469027)
(0.0310743 -0.0484325 0.0064207)
(0.0495635 -0.0646091 0.00617872)
(0.0690775 -0.0799502 0.00518214)
(0.0979634 -0.089725 0.00451786)
(0.130873 -0.100823 0.00483669)
(0.217713 -0.0466597 0.00768744)
(0.0965705 -0.0106723 0.0018179)
(0.101297 -0.0013858 0.00137993)
(0.100945 -0.00122645 0.00151509)
(0.100666 -0.000462033 0.00148735)
(0.10062 -0.000114781 0.00150023)
(0.10062 0.00010263 0.00150027)
(0.100667 0.000451346 0.00148735)
(0.100949 0.0012186 0.00151467)
(0.101305 0.00138035 0.00138291)
(0.0965722 0.0107749 0.00182816)
(0.0950935 -0.00523629 0.00254182)
(0.108644 -0.00239493 0.00237867)
(0.106195 -0.00196494 0.00252625)
(0.105015 -0.000790439 0.00245832)
(0.104775 -0.000243391 0.00248815)
(0.104777 0.000207036 0.00248826)
(0.10502 0.000756872 0.0024578)
(0.10621 0.00192922 0.00252226)
(0.108674 0.00233774 0.00237532)
(0.09507 0.00529317 0.00254835)
(0.0930657 -0.000186957 0.00254914)
(0.112124 -0.00288306 0.00285548)
(0.10917 -0.00168569 0.00287965)
(0.107584 -0.000675652 0.00279756)
(0.107233 -0.000280918 0.00283329)
(0.107237 0.000207009 0.0028336)
(0.107595 0.000603352 0.00279803)
(0.109185 0.00161751 0.00287529)
(0.112115 0.00282911 0.00286188)
(0.0931126 0.000172084 0.00255094)
(0.0905967 0.00246425 0.0024862)
(0.112457 -0.00323364 0.00319378)
(0.109924 -0.00118859 0.00313508)
(0.108403 -0.000541371 0.00307753)
(0.108043 -0.000300665 0.00312016)
(0.108051 0.000186096 0.00312063)
(0.108426 0.000428676 0.00307865)
(0.109973 0.00108968 0.00312981)
(0.112453 0.00316547 0.00320156)
(0.0907137 -0.00252662 0.00248668)
(0.0887965 0.00350798 0.00237869)
(0.111649 -0.00344653 0.00339011)
(0.109769 -0.000769229 0.00324908)
(0.108428 -0.000536945 0.00324666)
(0.108061 -0.000329725 0.00329593)
(0.108077 0.000165594 0.00329689)
(0.108469 0.000377407 0.0032488)
(0.109866 0.000626801 0.0032462)
(0.111668 0.00335977 0.00339735)
(0.0890088 -0.00362956 0.00238301)
(0.0876275 0.00374446 0.0022183)
(0.110798 -0.00354019 0.00347298)
(0.109576 -0.00044927 0.00319395)
(0.108373 -0.000599471 0.00323152)
(0.107971 -0.000349083 0.00328513)
(0.107996 0.000124415 0.00328196)
(0.108438 0.000384896 0.00323994)
(0.10974 0.000243754 0.00321568)
(0.110867 0.0034219 0.00346263)
(0.0879578 -0.00391629 0.00222604)
(0.0867577 0.00361069 0.00204176)
(0.109929 -0.00355754 0.00346659)
(0.109453 -0.000212652 0.00307025)
(0.108396 -0.000681305 0.0031763)
(0.107937 -0.000351699 0.00320579)
(0.107983 5.06457e-05 0.00320606)
(0.108481 0.000403879 0.0031856)
(0.109659 -6.67108e-05 0.00311636)
(0.110104 0.00340892 0.00346547)
(0.0872211 -0.00382492 0.00204769)
(0.0859875 0.00333605 0.00187104)
(0.10905 -0.00351593 0.00338992)
(0.109342 -5.18627e-05 0.00295115)
(0.108387 -0.000774253 0.00312992)
(0.107898 -0.000345581 0.00311682)
(0.107962 -5.26964e-05 0.0031257)
(0.108506 0.000416695 0.00313416)
(0.109587 -0.000311401 0.00300658)
(0.109316 0.00333117 0.00341432)
(0.0866439 -0.00358114 0.00187753)
(0.0852511 0.00301185 0.00170714)
(0.108253 -0.003449 0.00327549)
(0.109233 3.35304e-05 0.00287096)
(0.108354 -0.000889401 0.00306608)
(0.107856 -0.000343103 0.00301744)
(0.107934 -0.000181103 0.00302548)
(0.108523 0.00042433 0.00306843)
(0.109514 -0.0005019 0.00289327)
(0.108582 0.00318962 0.00330944)
(0.0861881 -0.00329294 0.00171871)
(0.0845505 0.00268474 0.00155063)
(0.107529 -0.0033564 0.00312988)
(0.109084 4.28452e-05 0.00274995)
(0.108322 -0.00102213 0.00298786)
(0.10782 -0.000354088 0.00290587)
(0.107921 -0.000333901 0.00292209)
(0.108559 0.00041868 0.00300535)
(0.109485 -0.000658148 0.00280101)
(0.107954 0.00299284 0.00316195)
(0.085849 -0.00302083 0.00157239)
(0.0838572 0.00236011 0.00139822)
(0.106886 -0.00326847 0.00296168)
(0.108981 6.96369e-06 0.00261969)
(0.108289 -0.00116741 0.00290794)
(0.107794 -0.000389906 0.00279804)
(0.107907 -0.000509898 0.0027884)
(0.108595 0.0003799 0.00291396)
(0.109432 -0.00079224 0.00266417)
(0.107483 0.00275408 0.00299019)
(0.0855924 -0.00277246 0.00143558)
(0.0831234 0.00209269 0.00124353)
(0.106275 -0.00323444 0.0028302)
(0.108878 -8.88513e-05 0.00250698)
(0.108237 -0.00134104 0.00281071)
(0.107755 -0.000465466 0.00266242)
(0.107937 -0.000717909 0.00266305)
(0.108677 0.000309706 0.00282063)
(0.109459 -0.000941015 0.00251614)
(0.10715 0.00253767 0.00285264)
(0.085414 -0.00256861 0.00130955)
(0.0823607 0.00183028 0.00110147)
(0.105618 -0.00326928 0.00272834)
(0.108758 -0.000260612 0.00239733)
(0.108193 -0.00155865 0.00271254)
(0.107758 -0.000587446 0.00253721)
(0.107974 -0.000961612 0.00255285)
(0.108783 0.000196514 0.00273544)
(0.109532 -0.00110078 0.00239757)
(0.106887 0.00231684 0.00272768)
(0.085358 -0.0024132 0.00119962)
(0.0815616 0.00144711 0.000990308)
(0.104836 -0.00323734 0.0025252)
(0.108595 -0.000496452 0.00230302)
(0.108143 -0.00180875 0.00262174)
(0.107764 -0.000770421 0.00243118)
(0.108027 -0.00125128 0.0024411)
(0.108921 2.64024e-05 0.00265338)
(0.109639 -0.00128428 0.00228383)
(0.10669 0.00206089 0.00259336)
(0.0854389 -0.00228535 0.00110513)
(0.0805109 0.00106531 0.000892934)
(0.104196 -0.00324639 0.00231609)
(0.108379 -0.000784559 0.00221887)
(0.108081 -0.00211509 0.002534)
(0.107781 -0.00102887 0.00233436)
(0.1081 -0.00160022 0.00233637)
(0.109089 -0.000216613 0.00257592)
(0.109803 -0.00151245 0.00217887)
(0.10658 0.00176735 0.00245355)
(0.0856761 -0.00218326 0.00102555)
(0.079242 0.000687191 0.000811616)
(0.103544 -0.00336639 0.00215221)
(0.108105 -0.00116611 0.00214224)
(0.108002 -0.00250674 0.00245337)
(0.107803 -0.00138725 0.00225446)
(0.108194 -0.00202889 0.002243)
(0.109295 -0.000549574 0.00250239)
(0.110033 -0.00180176 0.00208634)
(0.106616 0.00144601 0.00233512)
(0.0860476 -0.00212715 0.00096112)
(0.0776529 0.000291734 0.0007473)
(0.102878 -0.00358769 0.00201038)
(0.107778 -0.00165973 0.00207375)
(0.1079 -0.00300626 0.00238478)
(0.107824 -0.00187383 0.00219097)
(0.108312 -0.00256101 0.00216058)
(0.109545 -0.000997012 0.00243157)
(0.110352 -0.00216767 0.00200796)
(0.106788 0.00107404 0.00223368)
(0.0866046 -0.00211311 0.000917312)
(0.0756788 -0.000136522 0.000704981)
(0.102133 -0.00394343 0.0019028)
(0.107387 -0.00230144 0.00202051)
(0.107762 -0.00364889 0.00233259)
(0.107844 -0.00252527 0.00214495)
(0.108465 -0.00322938 0.00209249)
(0.109861 -0.00159057 0.00236846)
(0.110778 -0.00263668 0.00194669)
(0.107148 0.000614891 0.00213593)
(0.0873837 -0.00212771 0.000896973)
(0.0732452 -0.000620798 0.00069493)
(0.101227 -0.004443 0.00182322)
(0.106908 -0.00313569 0.00199175)
(0.107578 -0.00447513 0.00229952)
(0.107863 -0.00338635 0.0021191)
(0.108663 -0.0040754 0.00204464)
(0.110264 -0.00237099 0.00231983)
(0.111342 -0.00324477 0.00190623)
(0.107764 5.51004e-05 0.00206044)
(0.0884429 -0.00217994 0.000902242)
(0.0702228 -0.00116522 0.000731657)
(0.100096 -0.0051298 0.00179517)
(0.106329 -0.00421589 0.00199274)
(0.107339 -0.00553873 0.00229394)
(0.107884 -0.00451253 0.00212163)
(0.10892 -0.00515356 0.00202183)
(0.110777 -0.0033918 0.00228955)
(0.112088 -0.00403442 0.00189793)
(0.108687 -0.000636837 0.00201853)
(0.0898772 -0.00228488 0.000940877)
(0.0665293 -0.00178014 0.000839265)
(0.0985788 -0.00604364 0.00184226)
(0.105623 -0.00560707 0.00204054)
(0.107034 -0.00690809 0.0023307)
(0.107908 -0.00597435 0.00216639)
(0.109254 -0.00653854 0.00204088)
(0.111441 -0.0047265 0.00228872)
(0.113078 -0.00507017 0.00192472)
(0.109998 -0.00151616 0.00201315)
(0.091805 -0.00245915 0.00102561)
(0.0620313 -0.00246607 0.00104897)
(0.0965193 -0.00720369 0.0019864)
(0.104747 -0.00737604 0.00215409)
(0.106648 -0.00866304 0.00242175)
(0.107926 -0.00785842 0.00226784)
(0.109669 -0.00832387 0.00211114)
(0.112286 -0.0064768 0.00233388)
(0.11439 -0.0064459 0.00199472)
(0.111818 -0.00265118 0.00205833)
(0.0943852 -0.00273216 0.00117319)
(0.056613 -0.00320993 0.0013909)
(0.0936996 -0.00859737 0.00224834)
(0.103631 -0.0095836 0.00236973)
(0.106165 -0.0108987 0.00258893)
(0.107921 -0.0102713 0.00244962)
(0.11018 -0.0106369 0.00225648)
(0.113354 -0.00877912 0.00244121)
(0.116119 -0.00829841 0.0021298)
(0.11431 -0.00414479 0.00217592)
(0.0978425 -0.00314791 0.00140884)
(0.0501052 -0.0039312 0.00187199)
(0.0898873 -0.0101874 0.00265886)
(0.102127 -0.0122606 0.0027175)
(0.105536 -0.0137206 0.00286443)
(0.107851 -0.0133442 0.0027368)
(0.11076 -0.0136507 0.00251029)
(0.114675 -0.0118293 0.00263923)
(0.118378 -0.0108365 0.00235793)
(0.1177 -0.00616017 0.00239748)
(0.102509 -0.00377762 0.00176801)
(0.0424143 -0.00448469 0.00243149)
(0.0846874 -0.0118607 0.00322144)
(0.0999796 -0.0153692 0.00324415)
(0.104665 -0.0172369 0.00330392)
(0.107648 -0.0172396 0.00316842)
(0.111357 -0.0175916 0.00290636)
(0.116261 -0.0159092 0.00296604)
(0.121295 -0.0143878 0.00271575)
(0.122313 -0.00897802 0.00276642)
(0.108872 -0.00475787 0.00230246)
(0.0335495 -0.00461671 0.0028849)
(0.0776744 -0.0133228 0.00385222)
(0.0967212 -0.0187134 0.00397788)
(0.103312 -0.0215109 0.00398596)
(0.107162 -0.0221631 0.0038078)
(0.111829 -0.0227701 0.00349448)
(0.118041 -0.0214308 0.0034688)
(0.124967 -0.019482 0.00325251)
(0.12858 -0.0130821 0.00334311)
(0.117853 -0.00627898 0.00308124)
(0.0237738 -0.00395657 0.00291556)
(0.0683026 -0.0140577 0.00430057)
(0.0915913 -0.0218451 0.00490313)
(0.101022 -0.0264624 0.00502466)
(0.106164 -0.0283317 0.00476008)
(0.111967 -0.0295912 0.00433717)
(0.119871 -0.0289827 0.00419722)
(0.129464 -0.0269898 0.00401696)
(0.137154 -0.0194455 0.00421421)
(0.130687 -0.00903388 0.00422089)
(0.0145864 -0.00210155 0.00284814)
(0.05674 -0.0134269 0.00468015)
(0.0836969 -0.0241485 0.00602657)
(0.0969252 -0.0318076 0.00647658)
(0.104101 -0.0359194 0.00612023)
(0.111261 -0.0385498 0.005481)
(0.121164 -0.0393856 0.00515719)
(0.134388 -0.0382873 0.00500331)
(0.148302 -0.0300165 0.00542848)
(0.151564 -0.0134121 0.00584964)
(0.00846722 -0.000634466 0.00277622)
(0.0434401 -0.0112221 0.00531672)
(0.072234 -0.0244221 0.00745234)
(0.0898976 -0.0363191 0.0084088)
(0.100385 -0.0445043 0.00795985)
(0.109452 -0.0500945 0.00695888)
(0.121549 -0.0536604 0.00632306)
(0.139515 -0.0553816 0.00614867)
(0.16255 -0.0487016 0.00705946)
(0.18313 -0.0253891 0.00820677)
(0.00550091 -0.00256495 6.15623e-05)
(0.0308804 -0.0111569 0.00427795)
(0.0579803 -0.024548 0.00759653)
(0.0784812 -0.0389854 0.0093528)
(0.092623 -0.0518981 0.00924095)
(0.104507 -0.0628604 0.00799195)
(0.11796 -0.072761 0.00689167)
(0.142002 -0.0802283 0.00656699)
(0.171234 -0.0891802 0.00803804)
(0.249356 -0.0414857 0.0111372)
(0.0959885 -0.0110547 0.0013582)
(0.100946 -0.00152081 0.0012204)
(0.100648 -0.00117851 0.00117283)
(0.100407 -0.000460485 0.00118514)
(0.100365 -0.000113721 0.00119119)
(0.100366 0.000102983 0.00119118)
(0.100408 0.000451542 0.00118515)
(0.100652 0.00117219 0.00117294)
(0.100948 0.00151953 0.00122222)
(0.0959892 0.0111827 0.00136157)
(0.0937341 -0.00561475 0.00197226)
(0.106196 -0.00254226 0.001947)
(0.103727 -0.00192982 0.00191259)
(0.102547 -0.000780869 0.00194574)
(0.102308 -0.000237473 0.00195978)
(0.10231 0.00020484 0.0019597)
(0.102553 0.00075211 0.00194515)
(0.103745 0.00189559 0.00191106)
(0.106235 0.00248121 0.00194647)
(0.0937048 0.00565374 0.00197355)
(0.0919012 -0.000460218 0.00163968)
(0.10917 -0.00290644 0.00165369)
(0.106058 -0.00163029 0.00159872)
(0.104426 -0.000645965 0.00163071)
(0.104079 -0.000269984 0.00164373)
(0.104084 0.000197482 0.00164378)
(0.104439 0.000575822 0.00163052)
(0.106073 0.00156022 0.00159661)
(0.109156 0.00285732 0.00165003)
(0.0919556 0.000428515 0.00163923)
(0.0901082 0.00233509 0.00115357)
(0.109924 -0.00317943 0.00113874)
(0.107084 -0.00111798 0.00106938)
(0.105495 -0.000499623 0.00109007)
(0.105147 -0.000291024 0.00110377)
(0.105155 0.000176704 0.00110385)
(0.105516 0.000390274 0.00109037)
(0.107103 0.00101712 0.00106588)
(0.109916 0.00310383 0.00113383)
(0.0902337 -0.00239663 0.00115795)
(0.0890866 0.00353499 0.000740711)
(0.109758 -0.00329012 0.000701543)
(0.107611 -0.000686997 0.000618678)
(0.106155 -0.000499359 0.000637647)
(0.105802 -0.000328582 0.000656492)
(0.105814 0.000164852 0.00065624)
(0.106187 0.000346968 0.000637388)
(0.107635 0.000548268 0.000612014)
(0.109771 0.00320564 0.000691794)
(0.0892952 -0.0036483 0.000751887)
(0.088593 0.00395909 0.000390384)
(0.1096 -0.00326223 0.000350154)
(0.108167 -0.000324834 0.000232402)
(0.106788 -0.000568854 0.000254638)
(0.106384 -0.000351599 0.000274465)
(0.106402 0.000128305 0.000273137)
(0.106837 0.000366355 0.000253105)
(0.108211 0.00013756 0.000222111)
(0.109598 0.00313364 0.000342948)
(0.0889526 -0.00409207 0.000407751)
(0.0882889 0.00400297 0.000106387)
(0.109477 -0.00318263 7.60209e-05)
(0.108739 -2.92338e-05 -9.8224e-05)
(0.1074 -0.000654367 -7.14871e-05)
(0.106943 -0.000347428 -5.69565e-05)
(0.106968 4.94225e-05 -6.05642e-05)
(0.107475 0.000388906 -7.34055e-05)
(0.108813 -0.000222372 -0.00010885)
(0.109501 0.00299113 7.14814e-05)
(0.0888065 -0.00416526 0.000124702)
(0.087969 0.00387755 -9.72413e-05)
(0.10935 -0.00310049 -0.000126661)
(0.109235 0.000192222 -0.00036528)
(0.107934 -0.000754168 -0.000322275)
(0.107447 -0.000328161 -0.000320219)
(0.107483 -6.56423e-05 -0.00032491)
(0.108043 0.000408093 -0.000324082)
(0.109353 -0.000526146 -0.000374967)
(0.109425 0.0028514 -0.000128906)
(0.0886832 -0.00407997 -8.29875e-05)
(0.0876304 0.00367715 -0.000235363)
(0.109206 -0.00302716 -0.000264699)
(0.10966 0.00033664 -0.000567761)
(0.108386 -0.000877096 -0.000504254)
(0.107889 -0.000309942 -0.000517273)
(0.107938 -0.000208184 -0.000522339)
(0.108538 0.000424046 -0.000506233)
(0.109834 -0.000779804 -0.000578618)
(0.109374 0.00270251 -0.000264453)
(0.0885776 -0.00391935 -0.00022302)
(0.0872757 0.00344603 -0.000325582)
(0.109067 -0.00296655 -0.000353307)
(0.110048 0.000413471 -0.000717503)
(0.108785 -0.00101653 -0.000634449)
(0.108291 -0.000303228 -0.000662415)
(0.10836 -0.000374329 -0.000668687)
(0.108994 0.000428673 -0.000636012)
(0.110298 -0.00100176 -0.000732746)
(0.109385 0.00255364 -0.000354119)
(0.088502 -0.00374659 -0.000310106)
(0.0869054 0.00318534 -0.00038392)
(0.108907 -0.00289191 -0.00040711)
(0.1104 0.000434768 -0.000835829)
(0.109148 -0.0011682 -0.000725024)
(0.108671 -0.000319816 -0.000769085)
(0.108764 -0.000567532 -0.000775462)
(0.109433 0.000404362 -0.000723938)
(0.110756 -0.00120198 -0.00084683)
(0.109411 0.00236488 -0.000410555)
(0.0885109 -0.00355728 -0.00035613)
(0.08643 0.00293911 -0.000433247)
(0.108788 -0.00285702 -0.000442652)
(0.110711 0.000396636 -0.000917808)
(0.109478 -0.00134613 -0.000782631)
(0.109029 -0.000370993 -0.000843844)
(0.109153 -0.000789105 -0.000857884)
(0.109857 0.000341582 -0.00078682)
(0.111205 -0.00140069 -0.000940153)
(0.109522 0.00216907 -0.000453017)
(0.0885312 -0.00339038 -0.000382669)
(0.08587 0.00267704 -0.000481066)
(0.108634 -0.00286233 -0.00043304)
(0.110981 0.000291053 -0.000970343)
(0.109776 -0.00155809 -0.000817116)
(0.109365 -0.000467273 -0.000900286)
(0.109529 -0.0010426 -0.000916123)
(0.110272 0.000237464 -0.00082799)
(0.111651 -0.00159966 -0.00100977)
(0.109676 0.00197059 -0.000473281)
(0.0886206 -0.00324353 -0.000400578)
(0.0851527 0.00238476 -0.000486512)
(0.10846 -0.0029035 -0.000410269)
(0.11121 0.000133568 -0.0010171)
(0.110041 -0.00180804 -0.000836956)
(0.109681 -0.000622258 -0.000938701)
(0.109898 -0.00133829 -0.000957863)
(0.110691 7.88456e-05 -0.000854011)
(0.112113 -0.00181607 -0.00106365)
(0.109883 0.00173855 -0.000479898)
(0.088792 -0.00311454 -0.000406514)
(0.0842732 0.00206731 -0.000455732)
(0.108243 -0.00300359 -0.000400966)
(0.111385 -9.66302e-05 -0.00105282)
(0.110273 -0.00211263 -0.000848126)
(0.109978 -0.000852905 -0.000965403)
(0.110264 -0.00168889 -0.000987544)
(0.111121 -0.00014845 -0.000868082)
(0.112602 -0.00206745 -0.00110718)
(0.110169 0.001477 -0.000483943)
(0.0890549 -0.0030124 -0.000400538)
(0.0831875 0.00172401 -0.000415868)
(0.107961 -0.00316779 -0.000379417)
(0.1115 -0.000425065 -0.00106832)
(0.110473 -0.00249076 -0.000849956)
(0.110262 -0.00118129 -0.000979496)
(0.110636 -0.00211257 -0.00100605)
(0.111576 -0.000461511 -0.000872367)
(0.113135 -0.00236565 -0.00113763)
(0.110552 0.00118237 -0.000486186)
(0.0894482 -0.00294176 -0.00038481)
(0.0818384 0.00134418 -0.000362687)
(0.107605 -0.00341708 -0.000349669)
(0.111551 -0.000872346 -0.00106415)
(0.110642 -0.00296561 -0.00084261)
(0.110534 -0.001634 -0.000979875)
(0.111023 -0.0026324 -0.00101316)
(0.11207 -0.00088318 -0.000867209)
(0.113731 -0.00272928 -0.00115518)
(0.111054 0.000837579 -0.000482276)
(0.0900111 -0.00290173 -0.000359207)
(0.0801601 0.000916591 -0.000296464)
(0.107135 -0.00377297 -0.000303384)
(0.111528 -0.00147002 -0.00103516)
(0.11078 -0.00356893 -0.000823071)
(0.1108 -0.00224449 -0.000964716)
(0.111434 -0.00327826 -0.00100826)
(0.112621 -0.00144291 -0.000852721)
(0.114416 -0.00318501 -0.00116003)
(0.111707 0.00042311 -0.000472882)
(0.0907913 -0.00289144 -0.000321423)
(0.0780699 0.000425931 -0.000207567)
(0.106505 -0.00425551 -0.000233343)
(0.11142 -0.00225492 -0.000975501)
(0.110885 -0.00433857 -0.000786148)
(0.111061 -0.00305323 -0.000930533)
(0.111882 -0.00408803 -0.000988275)
(0.11325 -0.00217876 -0.000826072)
(0.115219 -0.00376441 -0.00114951)
(0.112557 -9.02028e-05 -0.000457788)
(0.0918524 -0.00291898 -0.000271644)
(0.0754625 -0.000137981 -8.47545e-05)
(0.10566 -0.00489362 -0.000128053)
(0.111217 -0.00327356 -0.000875243)
(0.110955 -0.00532089 -0.00072438)
(0.111322 -0.00411053 -0.000871594)
(0.11238 -0.00511193 -0.000948162)
(0.113985 -0.00314 -0.000783216)
(0.116185 -0.00450982 -0.00111937)
(0.113672 -0.000733849 -0.000431412)
(0.0932693 -0.00299813 -0.000207407)
(0.0722332 -0.000779789 8.77329e-05)
(0.104511 -0.00571273 3.26673e-05)
(0.1109 -0.0045783 -0.000719413)
(0.110988 -0.00657217 -0.000625206)
(0.111588 -0.00547784 -0.000778409)
(0.112944 -0.00641521 -0.000879957)
(0.114858 -0.00439439 -0.000717685)
(0.117365 -0.00548043 -0.00106368)
(0.115134 -0.00155052 -0.000388517)
(0.0951555 -0.00314213 -0.000119386)
(0.0682678 -0.00148973 0.000337348)
(0.102948 -0.00673943 0.000272289)
(0.110447 -0.00622509 -0.000490058)
(0.110981 -0.00816046 -0.000471966)
(0.11186 -0.00722914 -0.000637105)
(0.113586 -0.00808216 -0.000770771)
(0.115907 -0.00603226 -0.000619229)
(0.118829 -0.00676074 -0.000973902)
(0.117056 -0.00260368 -0.000320891)
(0.0976624 -0.00337862 4.67593e-06)
(0.0634984 -0.00224545 0.000700454)
(0.100809 -0.00797517 0.000618588)
(0.109812 -0.00825913 -0.000165475)
(0.110924 -0.010162 -0.000243023)
(0.112135 -0.00945124 -0.000428893)
(0.114316 -0.0102227 -0.000604792)
(0.117171 -0.00817682 -0.000473709)
(0.120664 -0.00847305 -0.000836855)
(0.11959 -0.00399035 -0.000216661)
(0.101009 -0.00374382 0.000179977)
(0.0578822 -0.00298779 0.00120486)
(0.097915 -0.00939091 0.00110243)
(0.108916 -0.0107025 0.000283997)
(0.110796 -0.0126595 9.17744e-05)
(0.112393 -0.0122463 -0.000128204)
(0.115124 -0.0129792 -0.000358405)
(0.118681 -0.0110008 -0.000263206)