/*--------------------------------*- C++ -*----------------------------------*\
| =========                 |                                                 |
| \\      /  F ield         | OpenFOAM: The Open Source CFD Toolbox           |
|  \\    /   O peration     | Version:  4.1                                   |
|   \\  /    A nd           | Web:      www.OpenFOAM.org                      |
|    \\/     M anipulation  |                                                 |
\*---------------------------------------------------------------------------*/
FoamFile
{
    version     2.0;
    format      ascii;
    class       volScalarField;
    location    "50";
    object      T;
}
// * * * * * * * * * * * * * * * * * * * * * * * * * * * * * * * * * * * * * //

dimensions      [0 0 0 1 0 0 0];

internalField   nonuniform List<scalar> 
12000
(
0.999583
1.00358
0.999807
1.00054
1.00055
1.00055
1.00053
0.999806
1.00359
0.999558
0.994979
0.996274
0.99554
0.996991
0.997021
0.997014
0.996979
0.995538
0.996307
0.994933
0.999371
0.994201
0.997396
0.998257
0.998158
0.998157
0.99825
0.997413
0.994232
0.999302
1.00385
0.995572
1.00083
1.00049
1.00029
1.00027
1.00049
1.00085
0.995559
1.00374
1.00496
0.996285
1.00237
1.00118
1.00117
1.00107
1.00118
1.00239
0.996228
1.00482
1.00441
0.996217
1.0025
1.00085
1.00117
1.00107
1.00085
1.00249
0.996171
1.00422
1.00371
0.996263
1.00231
1.00036
1.00095
1.00093
1.00035
1.00228
0.996252
1.00349
1.00313
0.996551
1.00213
0.999985
1.00074
1.00079
0.999949
1.00208
0.996572
1.00288
1.00258
0.996875
1.00191
0.999654
1.00054
1.00061
0.999604
1.00183
0.996911
1.0023
1.00206
0.997149
1.00162
0.999349
1.00032
1.00041
0.999299
1.00153
0.997184
1.00173
1.00163
0.997348
1.00132
0.999122
1.00012
1.00021
0.999046
1.00123
0.997388
1.00124
1.00131
0.997511
1.00107
0.998976
0.999949
1.00006
0.998862
1.00097
0.997549
1.00086
1.0011
0.99769
1.00085
0.998886
0.999819
0.999935
0.998755
1.00076
0.997689
1.00058
1.00098
0.997845
1.00066
0.998835
0.999717
0.999838
0.998694
1.00057
0.997805
1.00034
1.00091
0.997972
1.0005
0.998808
0.99963
0.999757
0.998659
1.0004
0.99789
1.00011
1.0009
0.998072
1.00035
0.998787
0.999545
0.999678
0.998633
1.00024
0.997943
0.999899
1.00093
0.998134
1.00017
0.998752
0.999447
0.99959
0.998597
1.00007
0.99795
0.99968
1.00094
0.998149
0.999944
0.998678
0.999316
0.999475
0.998537
0.999884
0.997898
0.999437
1.00089
0.998104
0.999609
0.99853
0.999131
0.999318
0.99844
0.999666
0.997773
0.99915
1.00065
0.997978
0.999097
0.998261
0.998858
0.9991
0.998282
0.999407
0.997558
0.998791
0.999986
0.997655
0.998289
0.997777
0.998434
0.998782
0.998032
0.99908
0.997222
0.998314
0.998479
0.996894
0.997007
0.996924
0.997759
0.99829
0.997649
0.998633
0.996717
0.997647
0.995422
0.995231
0.994932
0.995419
0.996632
0.997489
0.997051
0.998004
0.995971
0.996672
0.989681
0.991744
0.991532
0.992785
0.99467
0.996109
0.996078
0.997094
0.994866
0.995187
0.979517
0.984672
0.985723
0.98813
0.99114
0.993637
0.99443
0.995761
0.993249
0.992755
0.961984
0.971055
0.975541
0.979913
0.98472
0.98906
0.991443
0.993687
0.990977
0.988793
0.931136
0.946088
0.957441
0.965437
0.973226
0.980682
0.986026
0.990496
0.988411
0.981602
0.891778
0.913047
0.92979
0.941718
0.953455
0.965254
0.975276
0.984128
0.987136
0.97242
0.842628
0.866919
0.88794
0.904542
0.921819
0.939488
0.956926
0.972611
0.993759
0.961173
0.771476
0.792242
0.820441
0.845986
0.869678
0.891552
0.916331
0.935696
1.00904
1.00765
1.00359
1.00675
1.00301
1.00391
1.00387
1.00387
1.00391
1.00301
1.00679
1.00354
0.996298
0.996863
0.996392
0.998265
0.99822
0.998219
0.99825
0.996387
0.996958
0.99624
0.994235
0.98974
0.992956
0.993843
0.993639
0.993629
0.993825
0.99297
0.989825
0.994131
0.995616
0.987826
0.993448
0.992816
0.99245
0.99245
0.992795
0.993473
0.987908
0.995468
0.99634
0.987433
0.994339
0.992674
0.992441
0.9925
0.992654
0.994363
0.987535
0.996151
0.996287
0.987517
0.994653
0.992458
0.992627
0.992709
0.99243
0.994666
0.987593
0.996099
0.996355
0.988185
0.994889
0.992424
0.993035
0.993082
0.992387
0.994888
0.98821
0.996182
0.996674
0.98933
0.995349
0.992732
0.993671
0.993689
0.992683
0.995318
0.989295
0.996496
0.997039
0.99058
0.995888
0.99325
0.994382
0.994395
0.993182
0.99584
0.990502
0.996824
0.997367
0.991692
0.996366
0.993808
0.995033
0.995056
0.993715
0.996296
0.991593
0.99707
0.997634
0.992671
0.996767
0.994332
0.995588
0.995625
0.994227
0.996668
0.99255
0.99724
0.99788
0.993549
0.997103
0.994827
0.99606
0.996112
0.994716
0.996979
0.993392
0.997377
0.998167
0.994281
0.997392
0.995298
0.996462
0.996532
0.995169
0.997247
0.9941
0.9975
0.998456
0.994897
0.997646
0.995737
0.996805
0.996894
0.995582
0.997478
0.994687
0.997596
0.998739
0.995423
0.997844
0.99613
0.997089
0.997198
0.995951
0.997664
0.995157
0.997681
0.999015
0.99586
0.997991
0.996468
0.997314
0.997444
0.99627
0.997806
0.995508
0.997752
0.999257
0.996222
0.998078
0.996739
0.997478
0.99763
0.996532
0.997906
0.995761
0.997764
0.999423
0.996501
0.998085
0.996923
0.997568
0.997748
0.996724
0.997957
0.995913
0.997688
0.999452
0.996666
0.997963
0.996989
0.997563
0.997782
0.996829
0.99794
0.995949
0.997503
0.99925
0.996646
0.997632
0.996882
0.997427
0.997701
0.996824
0.997824
0.995843
0.997179
0.998588
0.996348
0.996992
0.996516
0.9971
0.997461
0.996673
0.997566
0.995552
0.996667
0.997086
0.995576
0.995886
0.995753
0.996477
0.996985
0.996317
0.99712
0.995009
0.995883
0.994213
0.993938
0.994031
0.994363
0.995381
0.996146
0.995666
0.996409
0.994123
0.994691
0.989089
0.990739
0.990958
0.991935
0.993485
0.994708
0.994569
0.995322
0.992754
0.992869
0.980216
0.984693
0.985802
0.987746
0.990208
0.992259
0.992772
0.993711
0.990717
0.989962
0.965059
0.973473
0.976975
0.980518
0.984478
0.987993
0.989744
0.991332
0.987857
0.985381
0.939721
0.953242
0.961635
0.968117
0.974586
0.980589
0.984632
0.987908
0.984421
0.977376
0.902787
0.92198
0.936801
0.947593
0.957719
0.967385
0.975177
0.981996
0.98215
0.967107
0.851262
0.875918
0.898059
0.915193
0.930669
0.945266
0.95905
0.971378
0.986584
0.953247
0.785088
0.809878
0.837808
0.863367
0.885916
0.905488
0.926225
0.941704
1.00321
0.989957
0.999819
1.00301
0.998896
0.999618
0.999577
0.999576
0.999614
0.998897
1.00306
0.999753
0.99557
0.996402
0.996001
0.997902
0.997907
0.9979
0.997879
0.995984
0.996495
0.9955
0.997443
0.992971
0.996511
0.997542
0.997366
0.997353
0.997516
0.99653
0.993067
0.997308
1.00089
0.993464
0.999434
0.998786
0.998441
0.998433
0.998761
0.999462
0.993524
1.00074
1.00244
0.994354
1.00165
0.999837
0.999727
0.999735
0.999809
1.00167
0.994379
1.00229
1.00257
0.994669
1.00229
0.999947
1.00037
1.00037
0.999917
1.0023
0.994658
1.00241
1.0024
0.994903
1.00219
0.999592
1.00053
1.00051
0.999561
1.00219
0.994864
1.00222
1.00223
0.995352
1.00201
0.999268
1.00055
1.00052
0.99924
1.002
0.995285
1.00204
1.00203
0.995883
1.00186
0.999082
1.00055
1.00053
0.999046
1.00183
0.995782
1.00182
1.00175
0.996352
1.00166
0.998956
1.00051
1.00051
0.998904
1.00162
0.99623
1.00151
1.00149
0.996737
1.00143
0.998847
1.00042
1.00044
0.998782
1.00137
0.996607
1.00118
1.00129
0.997056
1.00118
0.998768
1.00029
1.00033
0.998687
1.00111
0.99692
1.00088
1.00116
0.997312
1.00095
0.998722
1.00015
1.00021
0.998624
1.00086
0.997183
1.00063
1.00107
0.99753
1.00074
0.998703
1.00001
1.0001
0.998586
1.00063
0.997394
1.00041
1.00102
0.997702
1.00052
0.998694
0.999874
0.999988
0.99856
1.00041
0.997548
1.0002
1.00101
0.997822
1.0003
0.998678
0.999729
0.999865
0.998533
1.0002
0.997644
0.999984
1.00101
0.997895
1.00007
0.998641
0.999569
0.99973
0.998493
1
0.997685
0.999752
1.00099
0.997919
0.99979
0.998562
0.999381
0.999569
0.998425
0.999791
0.997666
0.999475
1.00087
0.997863
0.999434
0.998406
0.999143
0.999367
0.99831
0.999551
0.997567
0.999132
1.00054
0.997672
0.998929
0.998122
0.998816
0.999092
0.998123
0.999254
0.997354
0.998697
0.999829
0.997253
0.99817
0.997628
0.998342
0.998702
0.997827
0.998865
0.996985
0.998116
0.998389
0.996427
0.997003
0.996796
0.997627
0.998127
0.997371
0.998335
0.996403
0.997305
0.995701
0.994833
0.995174
0.995411
0.99651
0.997256
0.996677
0.997595
0.99552
0.996131
0.990875
0.991817
0.992252
0.993111
0.994707
0.995891
0.995616
0.996548
0.994209
0.994382
0.982589
0.986242
0.987468
0.98928
0.991731
0.993684
0.993989
0.995084
0.992304
0.991619
0.96888
0.976224
0.979477
0.98287
0.986722
0.989996
0.991383
0.99304
0.989687
0.987282
0.947111
0.959149
0.966224
0.972264
0.97837
0.983824
0.987188
0.990326
0.98672
0.979697
0.915288
0.932425
0.94506
0.955132
0.964542
0.973179
0.979736
0.985982
0.985415
0.970002
0.87155
0.893306
0.912875
0.928939
0.943082
0.955933
0.967656
0.978686
0.992227
0.957323
0.813823
0.838382
0.865139
0.888563
0.908273
0.92476
0.942208
0.954928
1.01399
0.995086
1.00055
1.00392
0.999619
1.00039
1.00036
1.00036
1.00039
0.999617
1.00397
1.00048
0.997023
0.998278
0.997906
1.00002
1.00004
1.00003
0.999995
0.997886
0.998374
0.996951
0.998313
0.993861
0.997549
0.998832
0.998652
0.998637
0.998802
0.997569
0.993956
0.998164
1.00058
0.992831
0.998789
0.998236
0.997847
0.997835
0.998211
0.998817
0.992879
1.00041
1.00126
0.992703
0.999841
0.997963
0.997795
0.997791
0.997939
0.999865
0.992718
1.00109
1.00093
0.99249
0.999945
0.997421
0.997785
0.997791
0.997394
0.999959
0.992509
1.00072
1.00047
0.992433
0.999583
0.996719
0.997587
0.9976
0.996689
0.999578
0.992453
1.00023
1.00009
0.992724
0.999258
0.996189
0.99739
0.997412
0.996154
0.99923
0.992714
0.99986
0.999772
0.993219
0.999068
0.995927
0.997316
0.997352
0.995882
0.999024
0.993185
0.999518
0.9995
0.993751
0.998935
0.995852
0.997329
0.997381
0.995788
0.998875
0.993708
0.999185
0.999304
0.994257
0.998824
0.995883
0.99737
0.997441
0.995794
0.998747
0.994213
0.998904
0.999197
0.994741
0.998742
0.995992
0.997429
0.99752
0.99588
0.998654
0.994692
0.998686
0.999177
0.995197
0.998693
0.996163
0.997508
0.997619
0.996028
0.9986
0.995132
0.998535
0.999223
0.995618
0.99867
0.996374
0.997603
0.997736
0.996216
0.99857
0.995517
0.998444
0.999319
0.995996
0.998653
0.996598
0.9977
0.997855
0.996419
0.99855
0.99584
0.998387
0.99944
0.996326
0.998632
0.996815
0.997785
0.997961
0.996616
0.998532
0.996105
0.998326
0.999564
0.996602
0.998586
0.997003
0.997846
0.998044
0.99679
0.998507
0.99631
0.998234
0.999656
0.996808
0.998486
0.997137
0.997866
0.998088
0.996924
0.998458
0.996435
0.998095
0.999661
0.996918
0.998292
0.997181
0.99782
0.998073
0.996995
0.998364
0.99646
0.997882
0.999478
0.99689
0.997942
0.997085
0.997673
0.997971
0.996979
0.998201
0.996358
0.99756
0.998937
0.996639
0.997345
0.996772
0.997371
0.997743
0.996843
0.997936
0.99609
0.997077
0.99773
0.996002
0.996368
0.99613
0.996834
0.997329
0.99654
0.997524
0.995599
0.996359
0.995396
0.994669
0.994783
0.994968
0.995924
0.996636
0.996009
0.996907
0.99481
0.995281
0.991144
0.992065
0.992223
0.992979
0.994406
0.995505
0.995152
0.996017
0.993611
0.993651
0.983789
0.987181
0.98802
0.989653
0.991886
0.993668
0.993828
0.994798
0.991883
0.991072
0.971605
0.978405
0.981051
0.984143
0.987686
0.990636
0.991744
0.993177
0.989587
0.987042
0.952317
0.963496
0.969595
0.975159
0.980779
0.985642
0.988472
0.991228
0.987236
0.980048
0.923638
0.939776
0.951187
0.960641
0.969293
0.976925
0.982527
0.988129
0.986974
0.97119
0.883287
0.904269
0.922775
0.938033
0.950981
0.96226
0.972484
0.98254
0.995454
0.960151
0.828874
0.853445
0.879731
0.901669
0.919074
0.933034
0.948389
0.95965
1.01862
0.998652
1.00057
1.00387
0.999579
1.00036
1.00032
1.00032
1.00035
0.999575
1.00393
1.0005
0.997055
0.998238
0.997916
1.00005
1.00006
1.00005
1.00002
0.997895
0.998342
0.996983
0.998222
0.993664
0.997382
0.998663
0.998457
0.998441
0.998629
0.997401
0.993764
0.998076
1.00035
0.992506
0.998469
0.997864
0.997435
0.997422
0.997835
0.998493
0.992547
1.00019
1.00116
0.992563
0.999768
0.997821
0.997618
0.997611
0.997793
0.999783
0.992566
1.001
1.00116
0.992772
1.0004
0.997821
0.998181
0.998181
0.997791
1.0004
0.992769
1.00096
1.00099
0.993156
1.00054
0.997633
0.998537
0.998542
0.997597
1.00051
0.993129
1.00079
1.00083
0.993759
1.00054
0.997451
0.99872
0.998734
0.997405
1.0005
0.993693
1.00065
1.00069
0.994433
1.00053
0.997393
0.998874
0.998904
0.997334
1.00048
0.994352
1.00046
1.00053
0.995054
1.00049
0.997421
0.999008
0.999056
0.997343
1.00043
0.994972
1.00025
1.0004
0.995582
1.00039
0.997477
0.999085
0.999155
0.997377
1.00033
0.995513
1.00002
1.00032
0.996034
1.00026
0.997549
0.999114
0.999206
0.997427
1.00021
0.995967
0.999821
1.00027
0.996426
1.00014
0.997644
0.999117
0.999231
0.997499
1.00009
0.996338
0.999673
1.00026
0.996765
1.00002
0.997756
0.99911
0.999248
0.99759
0.999966
0.996643
0.999546
1.00029
0.997047
0.999897
0.99787
0.999093
0.999255
0.997687
0.999843
0.996887
0.999422
1.00034
0.997273
0.999761
0.997969
0.999057
0.999244
0.997772
0.999718
0.997072
0.999285
1.0004
0.997441
0.999598
0.998039
0.998996
0.999206
0.997834
0.999583
0.997194
0.99912
1.00042
0.997541
0.999385
0.998055
0.998894
0.999131
0.997858
0.999426
0.997239
0.99891
1.00036
0.997554
0.999086
0.997989
0.99873
0.999001
0.997825
0.999233
0.997192
0.998629
1.00012
0.997441
0.998646
0.997796
0.998475
0.998791
0.997713
0.998979
0.997024
0.998245
0.999545
0.997129
0.99798
0.997405
0.998079
0.998468
0.99749
0.998632
0.996701
0.99771
0.998357
0.996469
0.996962
0.99671
0.997467
0.997975
0.997115
0.99815
0.996167
0.99695
0.996124
0.995172
0.995373
0.995534
0.996512
0.997227
0.996531
0.997481
0.995346
0.995846
0.992098
0.992699
0.992864
0.993585
0.995
0.99608
0.995651
0.996565
0.994139
0.994209
0.985156
0.988106
0.988815
0.990389
0.99257
0.994295
0.994355
0.995358
0.992434
0.991655
0.973639
0.979872
0.982178
0.985154
0.988594
0.991423
0.992377
0.993812
0.990209
0.987689
0.95529
0.965835
0.971324
0.976658
0.982093
0.986733
0.989314
0.992005
0.987983
0.98078
0.927512
0.943145
0.953794
0.96287
0.971211
0.978479
0.983697
0.989117
0.987884
0.971981
0.887705
0.908533
0.926393
0.941134
0.953604
0.964365
0.974071
0.983772
0.996551
0.960749
0.833992
0.858614
0.884589
0.905818
0.922452
0.935693
0.950439
0.961099
1.02001
0.999179
1.00057
1.00387
0.999579
1.00036
1.00032
1.00032
1.00035
0.999576
1.00393
1.0005
0.997054
0.998237
0.997915
1.00005
1.00006
1.00004
1.00002
0.997895
0.998339
0.99698
0.998223
0.993661
0.997379
0.998659
0.998451
0.998437
0.998627
0.9974
0.99376
0.998073
1.00035
0.992498
0.998467
0.997861
0.99743
0.997416
0.997832
0.998491
0.992543
1.00019
1.00117
0.992554
0.999768
0.99782
0.997616
0.997605
0.997791
0.999784
0.992565
1.00099
1.00117
0.992764
1.0004
0.997819
0.998179
0.998175
0.997789
1.0004
0.992767
1.00096
1.00102
0.993135
1.00053
0.997629
0.998533
0.998538
0.997596
1.00051
0.993124
1.00079
1.00089
0.993726
1.00053
0.997442
0.998714
0.99873
0.997401
1.00049
0.993687
1.00065
1.00073
0.994407
1.00053
0.997381
0.998868
0.998899
0.997328
1.00048
0.994352
1.00046
1.00054
0.995042
1.00049
0.997409
0.999002
0.999052
0.997338
1.00043
0.994984
1.00022
1.00039
0.99558
1.0004
0.997464
0.999079
0.999151
0.997373
1.00033
0.995524
0.999996
1.0003
0.996033
1.00028
0.997536
0.999105
0.9992
0.997422
1.0002
0.995973
0.999809
1.00024
0.996425
1.00015
0.99763
0.999107
0.999225
0.997492
1.00007
0.99634
0.999674
1.00023
0.996761
1.00002
0.997741
0.999097
0.999239
0.997579
0.999942
0.996638
0.999563
1.00026
0.997037
0.999896
0.997852
0.999076
0.999242
0.99767
0.999813
0.996879
0.999442
1.00031
0.997257
0.999754
0.997948
0.999038
0.999226
0.997749
0.999686
0.997063
0.999294
1.00036
0.997419
0.999582
0.998012
0.998971
0.999183
0.997807
0.999549
0.997184
0.999114
1.00037
0.997511
0.99936
0.998023
0.998862
0.999101
0.997826
0.999389
0.997228
0.998894
1.0003
0.997514
0.99905
0.997949
0.99869
0.998962
0.997788
0.999188
0.997174
0.998608
1.00004
0.997389
0.998597
0.997745
0.998424
0.998743
0.997669
0.998924
0.996997
0.99822
0.999454
0.997059
0.997912
0.99734
0.998016
0.998407
0.997438
0.998566
0.99666
0.997679
0.998241
0.996375
0.99687
0.996625
0.997386
0.997896
0.997049
0.998068
0.996108
0.996909
0.995963
0.995043
0.995249
0.995421
0.996404
0.99712
0.996442
0.997375
0.995262
0.995789
0.991858
0.992515
0.992697
0.993429
0.994849
0.995933
0.995526
0.996426
0.994019
0.994127
0.984792
0.987828
0.988581
0.990166
0.992355
0.994088
0.994176
0.995172
0.992263
0.99153
0.97311
0.97945
0.981836
0.984835
0.988285
0.991126
0.992114
0.99355
0.98997
0.987503
0.954603
0.965234
0.97083
0.9762
0.981648
0.986303
0.988926
0.991624
0.98764
0.980496
0.926738
0.942371
0.953124
0.962246
0.970599
0.977885
0.983156
0.988598
0.98743
0.971628
0.887005
0.907661
0.925515
0.940275
0.952747
0.963513
0.973265
0.983
0.995844
0.960187
0.833191
0.857634
0.883562
0.904827
0.921484
0.934749
0.949556
0.960304
1.01932
0.998833
1.00055
1.00391
0.999618
1.00039
1.00036
1.00035
1.00039
0.999613
1.00397
1.00048
0.997022
0.998268
0.997893
1.00001
1.00003
1.00002
0.999978
0.997871
0.998366
0.996938
0.998309
0.993856
0.997541
0.998822
0.998636
0.998623
0.99879
0.997558
0.993946
0.998167
1.0006
0.99282
0.998788
0.998232
0.997837
0.997826
0.998208
0.998817
0.99287
1.00042
1.00133
0.992656
0.999843
0.997963
0.997793
0.997785
0.997944
0.999868
0.992706
1.00111
1.001
0.992434
0.99996
0.997421
0.99779
0.997786
0.9974
0.999957
0.992459
1.00079
1.00048
0.9924
0.999609
0.996717
0.997595
0.997598
0.996689
0.999577
0.992381
1.0003
1.00007
0.992711
0.999291
0.996187
0.997401
0.997414
0.996148
0.999238
0.992654
0.999889
0.999738
0.993221
0.999099
0.995925
0.99733
0.997357
0.995871
0.999033
0.993139
0.999517
0.999458
0.993759
0.998961
0.995845
0.99734
0.997385
0.995774
0.998887
0.993666
0.999175
0.999261
0.99427
0.998841
0.995873
0.997379
0.997443
0.99578
0.998767
0.994171
0.998886
0.99916
0.994757
0.998751
0.99598
0.997434
0.99752
0.995862
0.998678
0.994648
0.998663
0.999139
0.995215
0.998697
0.99615
0.997508
0.997618
0.996007
0.998629
0.99509
0.998505
0.999181
0.995633
0.998668
0.99636
0.997598
0.997731
0.996191
0.998606
0.995481
0.998398
0.999272
0.996006
0.998643
0.996581
0.997689
0.997845
0.99639
0.998586
0.995811
0.998328
0.999387
0.996327
0.998608
0.996791
0.997768
0.997947
0.996581
0.998562
0.996081
0.998259
0.999499
0.996591
0.998547
0.99697
0.997822
0.998025
0.996749
0.998529
0.996285
0.99816
0.999574
0.996781
0.998434
0.997093
0.997831
0.998063
0.996878
0.998468
0.996409
0.998015
0.999551
0.996871
0.998224
0.997124
0.997773
0.99804
0.996945
0.998361
0.996433
0.997803
0.999327
0.996813
0.997853
0.997011
0.99761
0.997927
0.996925
0.998186
0.996326
0.997483
0.998726
0.996517
0.997228
0.996676
0.997288
0.997683
0.996781
0.997907
0.996053
0.996996
0.997436
0.995815
0.996209
0.996
0.99672
0.997243
0.996462
0.997473
0.995548
0.99627
0.994966
0.994377
0.994556
0.994783
0.995759
0.996504
0.995898
0.996823
0.994733
0.995174
0.990494
0.991596
0.991873
0.992696
0.994152
0.995292
0.994978
0.995878
0.993486
0.993512
0.982787
0.986409
0.987458
0.9892
0.99148
0.993318
0.993537
0.99456
0.991673
0.990862
0.970088
0.977166
0.980139
0.983406
0.987029
0.990059
0.991252
0.992771
0.989243
0.986712
0.950245
0.961659
0.968162
0.973976
0.979724
0.9847
0.987649
0.99052
0.986649
0.979482
0.921132
0.937328
0.949121
0.95887
0.967706
0.975499
0.981268
0.987024
0.986108
0.970452
0.880501
0.901183
0.919845
0.935375
0.948557
0.960035
0.970446
0.980644
0.993878
0.958728
0.825435
0.849696
0.876026
0.898286
0.916061
0.930361
0.945999
0.9575
1.01699
0.997971
0.999819
1.00301
0.998896
0.999618
0.999577
0.999575
0.999611
0.998892
1.00306
0.999752
0.995571
0.996399
0.995985
0.997885
0.997892
0.997885
0.997858
0.995966
0.996493
0.995494
0.997459
0.992984
0.996529
0.99756
0.997383
0.997373
0.997534
0.996551
0.993088
0.997328
1.00092
0.993463
0.999456
0.998806
0.998463
0.998453
0.998784
0.999488
0.993524
1.00077
1.00246
0.994335
1.00167
0.999847
0.999745
0.999734
0.999827
1.00168
0.994349
1.00233
1.00258
0.994637
1.00229
0.999939
1.00036
1.00035
0.999921
1.00231
0.994617
1.00244
1.00239
0.994865
1.00218
0.999567
1.00047
1.00048
0.99954
1.00219
0.994837
1.00221
1.0022
0.995316
1.00199
0.999239
1.00047
1.00049
0.999196
1.00198
0.995262
1.00201
1.00198
0.995849
1.00182
0.999045
1.00046
1.00049
0.998985
1.0018
0.995756
1.00178
1.00173
0.996314
1.00162
0.998917
1.00042
1.00046
0.998835
1.00158
0.996193
1.00148
1.00147
0.9967
1.00138
0.998812
1.00032
1.00038
0.998707
1.00133
0.996554
1.00116
1.00125
0.997019
1.00113
0.998738
1.0002
1.00028
0.998607
1.00107
0.99686
1.00087
1.0011
0.997273
1.0009
0.998698
1.00006
1.00016
0.998544
1.00083
0.997126
1.00061
1.00102
0.997484
1.00068
0.99868
0.999929
1.00004
0.998507
1.0006
0.99734
1.00037
1.00097
0.997647
1.00046
0.998663
0.999791
0.999925
0.998481
1.00038
0.997498
1.00015
1.00094
0.997769
1.00024
0.998637
0.999646
0.999799
0.998453
1.00017
0.997599
0.999932
1.00092
0.997845
0.999998
0.998589
0.999484
0.999659
0.998411
0.999954
0.997644
0.999694
1.00087
0.997849
0.999708
0.998494
0.99929
0.999493
0.998341
0.999729
0.997624
0.999417
1.00071
0.997762
0.999329
0.998317
0.999039
0.99928
0.998222
0.999475
0.997517
0.999075
1.00033
0.997527
0.998792
0.998007
0.998693
0.998993
0.998028
0.999167
0.997296
0.998633
0.999523
0.997047
0.997991
0.997478
0.998191
0.998581
0.997719
0.998764
0.996918
0.998035
0.997949
0.996132
0.996756
0.996591
0.997427
0.997969
0.997235
0.998207
0.996315
0.997199
0.995044
0.994391
0.994818
0.995114
0.996229
0.997026
0.996487
0.997417
0.995392
0.995983
0.989873
0.991117
0.991701
0.992647
0.994281
0.995528
0.995323
0.996281
0.994002
0.994164
0.98103
0.985073
0.98656
0.988512
0.991034
0.993081
0.993499
0.994655
0.991954
0.99127
0.966414
0.97428
0.977972
0.981582
0.985561
0.988975
0.990539
0.992319
0.989093
0.986715
0.943528
0.956123
0.96381
0.970155
0.976459
0.982121
0.985738
0.98908
0.985699
0.978708
0.910727
0.928225
0.941549
0.951967
0.961611
0.970507
0.977398
0.983939
0.983782
0.968555
0.865436
0.887288
0.907584
0.924179
0.938667
0.951804
0.963868
0.975189
0.989351
0.954572
0.805709
0.830106
0.857512
0.881704
0.902135
0.919268
0.937274
0.950381
1.01036
0.993188
1.0036
1.00678
1.00306
1.00396
1.00392
1.00392
1.00396
1.00306
1.00684
1.00355
0.996318
0.996946
0.996476
0.99835
0.998309
0.998303
0.998332
0.996472
0.99707
0.996278
0.994239
0.989818
0.993041
0.993916
0.993711
0.993703
0.9939
0.993062
0.98994
0.994164
0.99561
0.987859
0.99348
0.992834
0.992484
0.992477
0.992815
0.993496
0.987912
0.995507
0.996331
0.987418
0.994324
0.992664
0.992495
0.992484
0.99264
0.99433
0.987415
0.996196
0.996274
0.987474
0.994606
0.992419
0.992673
0.992663
0.992408
0.994606
0.987417
0.996111
0.996338
0.988127
0.994824
0.992357
0.993027
0.993031
0.992354
0.99482
0.988036
0.996144
0.996651
0.989267
0.995276
0.992653
0.993616
0.993631
0.992631
0.995259
0.98915
0.99642
0.997009
0.990518
0.995815
0.993159
0.9943
0.994326
0.993115
0.995785
0.99038
0.996734
0.997308
0.991657
0.996299
0.993711
0.994942
0.994977
0.993644
0.996248
0.991489
0.996981
0.99756
0.992658
0.996696
0.994245
0.995498
0.995545
0.994159
0.996625
0.992443
0.997166
0.997825
0.99352
0.997023
0.99475
0.995971
0.996036
0.99464
0.996943
0.99327
0.997315
0.998118
0.994237
0.997301
0.995225
0.996371
0.996457
0.99509
0.997225
0.993984
0.997429
0.99839
0.994847
0.997546
0.995664
0.996708
0.996816
0.995502
0.997455
0.994588
0.997512
0.998653
0.995362
0.997739
0.99605
0.996985
0.997114
0.995867
0.997629
0.995066
0.997592
0.998894
0.995791
0.997879
0.996376
0.997203
0.997354
0.99618
0.997767
0.995419
0.997662
0.999083
0.996139
0.997953
0.996632
0.997354
0.99753
0.996433
0.997856
0.995672
0.997666
0.999202
0.996382
0.997932
0.996793
0.997427
0.997632
0.996613
0.997884
0.995823
0.99758
0.999182
0.99649
0.997763
0.996825
0.997396
0.997641
0.996702
0.997835
0.995852
0.997384
0.998912
0.996398
0.997374
0.996674
0.997225
0.997528
0.996673
0.997681
0.995732
0.997047
0.998158
0.996011
0.996659
0.996255
0.99685
0.997245
0.996488
0.997387
0.995419
0.996515
0.996521
0.995134
0.995457
0.995417
0.996158
0.996707
0.996084
0.996895
0.994846
0.995705
0.993439
0.993352
0.99347
0.993907
0.994958
0.995772
0.995361
0.99612
0.993915
0.994473
0.987942
0.989894
0.990189
0.991278
0.992888
0.994181
0.994141
0.994933
0.992471
0.992594
0.978328
0.983296
0.984636
0.986717
0.989285
0.991463
0.992132
0.993166
0.990315
0.989594
0.961619
0.970874
0.975049
0.978844
0.982996
0.986734
0.988736
0.990517
0.987259
0.984866
0.934481
0.948949
0.958452
0.965371
0.97216
0.978537
0.982979
0.986603
0.983505
0.976573
0.896616
0.916595
0.932412
0.94362
0.954046
0.96411
0.972427
0.979782
0.980657
0.965985
0.842548
0.867825
0.891081
0.908931
0.924926
0.939934
0.954283
0.967358
0.984001
0.950979
0.773908
0.798473
0.826697
0.852918
0.876472
0.896945
0.918592
0.934883
0.998733
0.988454
0.999563
1.00354
0.999752
1.00048
1.00049
1.00049
1.00047
0.999751
1.00356
0.999502
0.994941
0.996229
0.995482
0.996924
0.996953
0.996949
0.996911
0.995479
0.996282
0.994863
0.999324
0.994121
0.997298
0.998149
0.998051
0.998044
0.998137
0.99732
0.994179
0.999164
1.0038
0.995501
1.00075
1.00041
1.00017
1.00017
1.00041
1.00078
0.995539
1.00362
1.00493
0.996244
1.00231
1.00112
1.00101
1.00102
1.00113
1.00235
0.99625
1.00477
1.00438
0.996209
1.00248
1.00084
1.00104
1.00105
1.00081
1.00249
0.996184
1.00424
1.00369
0.996282
1.00233
1.0004
1.00092
1.00092
1.00034
1.0023
0.996243
1.00355
1.00312
0.996589
1.00217
1.00002
1.00078
1.00079
0.999972
1.00211
0.996548
1.00295
1.00258
0.996926
1.00195
0.999705
1.00062
1.00063
0.999655
1.00186
0.996893
1.00237
1.00206
0.997181
1.00166
0.999407
1.00041
1.00044
0.999356
1.00156
0.997173
1.00179
1.00163
0.997369
1.00137
0.999162
1.0002
1.00025
0.999103
1.00125
0.997391
1.00129
1.0013
0.997553
1.00112
0.999001
1.00003
1.00009
0.998928
1.00097
0.997562
1.00091
1.00109
0.997741
1.00089
0.998904
0.9999
0.999963
0.998817
1.00073
0.997689
1.00061
1.00096
0.997889
1.0007
0.99885
0.999797
0.999867
0.99875
1.00055
0.997795
1.00036
1.00089
0.998008
1.00053
0.998823
0.999705
0.999787
0.998707
1.00039
0.997882
1.00013
1.00087
0.998094
1.00037
0.9988
0.999611
0.999708
0.998672
1.00023
0.997935
0.999918
1.00088
0.998135
1.00018
0.998759
0.999502
0.99962
0.99863
1.00007
0.997942
0.999704
1.00087
0.998134
0.999934
0.998676
0.999362
0.999511
0.99857
0.999909
0.997893
0.999469
1.00078
0.998076
0.999576
0.998518
0.999169
0.999365
0.998478
0.999721
0.997779
0.999191
1.00046
0.99792
0.999024
0.998226
0.998881
0.999149
0.998325
0.999484
0.997576
0.998838
0.999669
0.997535
0.998151
0.997695
0.998434
0.998816
0.998078
0.999162
0.997249
0.998363
0.997916
0.996638
0.996766
0.996753
0.997705
0.998287
0.997678
0.998707
0.996748
0.997692
0.994421
0.994698
0.994504
0.995089
0.996449
0.997399
0.997027
0.998049
0.995988
0.996699
0.987905
0.990643
0.990742
0.992155
0.994222
0.99583
0.995929
0.997061
0.994844
0.995173
0.976418
0.982493
0.984237
0.986927
0.990179
0.992969
0.994019
0.99556
0.99314
0.992665
0.956056
0.966723
0.972715
0.977678
0.982865
0.987685
0.990524
0.993147
0.990682
0.988552
0.923513
0.93995
0.952833
0.96155
0.96988
0.97805
0.984149
0.989294
0.987805
0.981138
0.885401
0.907656
0.924053
0.936068
0.94829
0.960833
0.971803
0.98166
0.985846
0.971662
0.832391
0.856843
0.87886
0.895701
0.91356
0.932053
0.950648
0.967744
0.991498
0.960349
0.758531
0.775928
0.8036
0.830985
0.856769
0.880349
0.906362
0.926669
1.00389
1.00841
0.718736
0.733382
0.759165
0.788553
0.816896
0.841906
0.871397
0.88835
0.972066
1.00374
0.69139
0.703926
0.728777
0.758183
0.78701
0.812704
0.843506
0.861912
0.941091
1.01612
0.663086
0.674292
0.698326
0.72664
0.754511
0.779429
0.809794
0.831606
0.901313
1.0124
0.634346
0.644403
0.667834
0.694378
0.720205
0.743309
0.771434
0.795741
0.854659
0.978424
0.60553
0.614414
0.63726
0.661685
0.685011
0.705622
0.730193
0.754504
0.802038
0.92283
0.576898
0.584459
0.606528
0.628398
0.648687
0.666285
0.686853
0.709741
0.746163
0.855385
0.548616
0.554675
0.575519
0.594467
0.611395
0.625538
0.64169
0.662064
0.689444
0.782306
0.520757
0.52516
0.544221
0.559972
0.573376
0.583884
0.595589
0.61233
0.632583
0.707403
0.493342
0.496067
0.512801
0.525168
0.534786
0.541381
0.548409
0.560844
0.575051
0.633287
0.466456
0.467566
0.481477
0.490111
0.495213
0.497289
0.499479
0.507412
0.516343
0.560069
0.440143
0.439625
0.450136
0.454352
0.454377
0.451778
0.449595
0.453113
0.457571
0.488885
0.414266
0.412008
0.418395
0.417656
0.412786
0.405987
0.400091
0.399583
0.400322
0.421539
0.388577
0.384443
0.386247
0.380632
0.371445
0.361108
0.352174
0.348291
0.346049
0.359439
0.362865
0.356847
0.354117
0.344128
0.331279
0.318097
0.306854
0.300378
0.295882
0.303512
0.337071
0.32937
0.322484
0.308739
0.292913
0.277619
0.264775
0.256464
0.250332
0.253867
0.311379
0.302218
0.29166
0.27484
0.256752
0.240043
0.226214
0.216686
0.20937
0.209972
0.285947
0.275523
0.261861
0.242672
0.223021
0.20551
0.191178
0.180867
0.172648
0.171017
0.260821
0.249413
0.233262
0.212397
0.191841
0.174033
0.159542
0.148735
0.139839
0.136503
0.236087
0.224023
0.206012
0.184133
0.163278
0.145577
0.131216
0.120156
0.110818
0.105977
0.211906
0.199511
0.180263
0.157993
0.137366
0.12014
0.106091
0.0948428
0.0852806
0.079218
0.188494
0.176046
0.156163
0.13407
0.114125
0.0975806
0.0839373
0.072755
0.0633515
0.0565587
0.16609
0.153809
0.133848
0.112416
0.0935009
0.077771
0.0648028
0.0541045
0.0453065
0.0383393
0.144931
0.132976
0.113428
0.0930652
0.075383
0.060719
0.0487587
0.0389686
0.0311492
0.0246783
0.125224
0.113707
0.0949746
0.0760208
0.0597354
0.0463961
0.0357435
0.0272063
0.020613
0.0151436
0.107125
0.0961332
0.0785351
0.0611845
0.0464792
0.0346825
0.0255593
0.0184535
0.0131643
0.00890253
0.0907362
0.0803375
0.0641186
0.0484686
0.0354881
0.0253825
0.0178707
0.0121938
0.00814238
0.00505034
0.0761056
0.0663462
0.051677
0.0377798
0.0266015
0.0182234
0.0122513
0.00787343
0.004901
0.00279101
0.063221
0.0541437
0.0410796
0.0289756
0.019604
0.0128672
0.00825842
0.00498612
0.00288753
0.00151332
0.052018
0.0437001
0.0322012
0.0218788
0.0142234
0.00895399
0.00548748
0.0031126
0.0016761
0.000806981
0.0423995
0.0349451
0.0249062
0.0162847
0.0101866
0.00616747
0.00361639
0.00193753
0.00097256
0.000428431
0.736265
0.757352
0.786154
0.81512
0.84203
0.865006
0.890743
0.904328
0.978017
0.98408
0.71045
0.729543
0.758875
0.788808
0.816682
0.840549
0.868207
0.882744
0.954497
0.992412
0.682734
0.70023
0.730211
0.760761