/*--------------------------------*- C++ -*----------------------------------*\
| =========                 |                                                 |
| \\      /  F ield         | OpenFOAM: The Open Source CFD Toolbox           |
|  \\    /   O peration     | Version:  4.1                                   |
|   \\  /    A nd           | Web:      www.OpenFOAM.org                      |
|    \\/     M anipulation  |                                                 |
\*---------------------------------------------------------------------------*/
FoamFile
{
    version     2.0;
    format      ascii;
    class       volScalarField;
    location    "1300";
    object      epsilon;
}
// * * * * * * * * * * * * * * * * * * * * * * * * * * * * * * * * * * * * * //

dimensions      [0 2 -3 0 0 0 0];

internalField   nonuniform List<scalar> 
12000
(
0.31973
0.311854
0.31065
0.310349
0.310276
0.310277
0.310352
0.310642
0.311714
0.319579
0.0652175
0.0638252
0.0628588
0.0624123
0.0622773
0.0622777
0.0624146
0.0628705
0.0638572
0.0652783
0.0176621
0.0177921
0.0174343
0.0171877
0.0171009
0.0171008
0.0171888
0.0174261
0.017812
0.0176891
0.00615137
0.00642577
0.00627857
0.00616128
0.00611283
0.00611283
0.00615887
0.00626851
0.00643245
0.00617584
0.00262003
0.00280204
0.00275396
0.00269815
0.00267124
0.00267137
0.00269648
0.00274707
0.00281489
0.00264204
0.00131118
0.00141746
0.00140775
0.00138001
0.00136422
0.00136443
0.00137933
0.00140308
0.00142426
0.00132293
0.00074358
0.000807093
0.000809682
0.000794956
0.000785256
0.000785414
0.000795061
0.000808061
0.000811063
0.000749557
0.000463102
0.000503904
0.00050996
0.000501524
0.000495198
0.000495376
0.000501935
0.000510002
0.000506573
0.000466935
0.000309511
0.000337863
0.000344314
0.000339159
0.000334696
0.000334996
0.000339702
0.000345162
0.00033996
0.000312733
0.000218393
0.000239577
0.000245717
0.000242297
0.000239114
0.000239436
0.000242974
0.000246754
0.000241166
0.000221543
0.000160867
0.000177734
0.000183233
0.000180834
0.000178596
0.000178863
0.000181568
0.000184382
0.000179143
0.00016408
0.000122618
0.000136296
0.000141493
0.000139857
0.000138213
0.000138488
0.000140546
0.000142679
0.000137839
0.000125989
9.6137e-05
0.000107554
0.000112498
0.000111399
0.000110195
0.000110298
0.00011202
0.000113668
0.000109217
9.96915e-05
7.71579e-05
8.69131e-05
9.15706e-05
9.08256e-05
8.98931e-05
9.01004e-05
9.14707e-05
9.28196e-05
8.86625e-05
8.09111e-05
6.31464e-05
7.17132e-05
7.61697e-05
7.56767e-05
7.50068e-05
7.52036e-05
7.6296e-05
7.74374e-05
7.35958e-05
6.71458e-05
5.25146e-05
6.02452e-05
6.44928e-05
6.42203e-05
6.37813e-05
6.39839e-05
6.48418e-05
6.58488e-05
6.22839e-05
5.68064e-05
4.42411e-05
5.14056e-05
5.54436e-05
5.53524e-05
5.51012e-05
5.53036e-05
5.60338e-05
5.69671e-05
5.3707e-05
4.89338e-05
3.76346e-05
4.44421e-05
4.8261e-05
4.83423e-05
4.82763e-05
4.85362e-05
4.91781e-05
5.00281e-05
4.70719e-05
4.28088e-05
3.22154e-05
3.87893e-05
4.24498e-05
4.26998e-05
4.276e-05
4.30468e-05
4.36705e-05
4.45517e-05
4.19358e-05
3.80598e-05
2.763e-05
3.40674e-05
3.76379e-05
3.80691e-05
3.82834e-05
3.86809e-05
3.92698e-05
4.01164e-05
3.78222e-05
3.42533e-05
2.36289e-05
3.00172e-05
3.36065e-05
3.42157e-05
3.45053e-05
3.49483e-05
3.55952e-05
3.65472e-05
3.4622e-05
3.13251e-05
1.99957e-05
2.63884e-05
3.00773e-05
3.0919e-05
3.1378e-05
3.19821e-05
3.26291e-05
3.35759e-05
3.19714e-05
2.89036e-05
1.65729e-05
2.29864e-05
2.69803e-05
2.8077e-05
2.86029e-05
2.92537e-05
3.00469e-05
3.11841e-05
2.99895e-05
2.71604e-05
1.31826e-05
1.96673e-05
2.40457e-05
2.55204e-05
2.62725e-05
2.71413e-05
2.79503e-05
2.91317e-05
2.82695e-05
2.56936e-05
9.71942e-06
1.61437e-05
2.12687e-05
2.31656e-05
2.40336e-05
2.49536e-05
2.60369e-05
2.75283e-05
2.71242e-05
2.48647e-05
5.94266e-06
1.24166e-05
1.82185e-05
2.08591e-05
2.21474e-05
2.33408e-05
2.44122e-05
2.60763e-05
2.60382e-05
2.41863e-05
2.40664e-06
8.07448e-06
1.49685e-05
1.82667e-05
1.99063e-05
2.12928e-05
2.28289e-05
2.50259e-05
2.54876e-05
2.42891e-05
1.43684e-06
4.54476e-06
1.05149e-05
1.53327e-05
1.79318e-05
1.96891e-05
2.11213e-05
2.36725e-05
2.50375e-05
2.44643e-05
2.40095e-06
4.18431e-06
6.06382e-06
9.26551e-06
1.35876e-05
1.72106e-05
1.93341e-05
2.26214e-05
2.48729e-05
2.55983e-05
4.89991e-06
7.03654e-06
8.03176e-06
8.0408e-06
8.79768e-06
1.08313e-05
1.47965e-05
1.96582e-05
2.41903e-05
2.7173e-05
0.311851
0.840527
0.858773
0.858265
0.858126
0.858124
0.858266
0.85875
0.841186
0.312008
0.0638215
0.0612185
0.0340451
0.0335275
0.0335221
0.0335253
0.0335477
0.0340368
0.0610683
0.0641801
0.0177881
0.00346351
0.00092082
0.000864656
0.000866175
0.000864267
0.000868679
0.000895919
0.00350856
0.017927
0.00642373
0.000424307
0.000202841
0.000200241
0.000199927
0.000199721
0.000197957
0.000200047
0.000399432
0.00648876
0.00280038
0.000140954
8.73264e-05
8.69578e-05
8.63856e-05
8.64001e-05
8.54205e-05
8.54243e-05
0.000143017
0.00282918
0.00141594
6.87524e-05
4.00802e-05
4.01867e-05
3.99956e-05
3.9801e-05
3.94218e-05
3.8843e-05
7.1479e-05
0.00142163
0.00080571
4.41532e-05
1.9525e-05
1.97712e-05
1.95511e-05
1.95442e-05
1.94199e-05
1.89534e-05
4.38825e-05
0.000803628
0.000502573
3.00295e-05
1.04323e-05
1.09563e-05
1.09181e-05
1.10835e-05
1.10622e-05
1.07244e-05
2.61427e-05
0.000499895
0.000336616
3.73525e-05
6.44698e-06
6.87426e-06
6.85696e-06
6.1492e-06
6.54303e-06
6.12261e-06
3.26461e-05
0.000335329
0.000238365
2.80999e-05
4.06717e-06
5.2344e-06
4.97223e-06
7.40485e-06
6.86737e-06
6.18946e-06
2.67436e-05
0.000238512
0.000176517
4.07877e-05
5.97515e-06
7.09221e-06
7.05119e-06
8.1937e-06
8.99692e-06
9.11524e-06
3.75425e-05
0.000177847
0.000135062
3.03741e-05
8.36045e-06
1.05569e-05
1.09902e-05
1.02013e-05
7.72058e-06
7.44107e-06
2.9196e-05
0.000137577
0.000106284
2.52191e-05
7.6069e-06
9.21009e-06
9.81252e-06
9.29088e-06
1.02893e-05
9.54492e-06
2.58297e-05
0.000109586
8.55896e-05
2.22328e-05
8.88835e-06
1.04608e-05
1.14128e-05
9.98353e-06
7.96091e-06
8.86596e-06
2.0739e-05
8.94265e-05
7.0315e-05
2.11178e-05
6.84774e-06
7.84806e-06
8.30526e-06
7.70428e-06
8.36007e-06
7.29134e-06
2.01523e-05
7.44919e-05
5.87549e-05
1.93467e-05
7.67615e-06
8.8063e-06
9.43324e-06
8.42339e-06
6.43304e-06
6.8276e-06
1.82277e-05
6.31918e-05
4.98109e-05
1.78681e-05
7.59698e-06
8.70924e-06
9.35572e-06
8.17062e-06
7.0434e-06
7.17197e-06
1.63718e-05
5.44501e-05
4.27261e-05
1.6694e-05
7.16833e-06
8.10831e-06
8.61665e-06
7.47008e-06
7.0716e-06
6.94415e-06
1.47743e-05
4.7729e-05
3.69537e-05
1.57428e-05
6.74011e-06
7.3909e-06
7.80287e-06
6.76134e-06
6.73195e-06
6.47109e-06
1.33787e-05
4.23426e-05
3.21037e-05
1.5049e-05
6.39422e-06
6.76829e-06
7.02275e-06
6.12265e-06
6.29005e-06
6.01659e-06
1.21484e-05
3.81571e-05
2.79678e-05
1.47155e-05
6.16868e-06
6.20388e-06
6.32116e-06
5.58251e-06
5.85768e-06
5.61304e-06
1.1031e-05
3.45867e-05
2.42681e-05
1.46032e-05
6.18763e-06
5.82644e-06
5.84157e-06
5.22828e-06
5.48727e-06
5.29964e-06
1.00132e-05
3.18281e-05
2.09291e-05
1.4862e-05
6.24382e-06
5.52257e-06
5.48482e-06
4.94052e-06
5.19467e-06
5.05816e-06
9.13948e-06
2.92816e-05
1.77364e-05
1.51263e-05
6.90539e-06
5.56957e-06
5.27153e-06
4.77518e-06
5.01776e-06
4.99638e-06
8.30541e-06
2.7353e-05
1.46438e-05
1.54593e-05
7.84524e-06
5.65203e-06
5.48434e-06
4.95975e-06
5.03146e-06
4.96817e-06
7.78157e-06
2.53654e-05
1.14433e-05
1.59509e-05
9.40916e-06
6.07375e-06
5.57239e-06
5.04699e-06
5.1665e-06
5.33569e-06
7.14802e-06
2.3994e-05
8.23852e-06
1.75238e-05
1.17938e-05
6.97611e-06
6.07766e-06
5.54237e-06
5.3996e-06
5.46679e-06
7.55516e-06
2.22331e-05
5.07016e-06
1.91968e-05
1.47267e-05
8.78312e-06
6.85378e-06
5.99328e-06
6.02881e-06
6.50374e-06
7.45358e-06
2.13423e-05
3.80536e-06
2.37154e-05
2.01799e-05
1.2214e-05
8.49725e-06
7.3646e-06
7.09139e-06
7.20838e-06
1.13456e-05
1.89793e-05
4.14177e-06
2.61307e-05
2.87286e-05
2.03723e-05
1.27173e-05
9.38324e-06
9.06254e-06
9.62641e-06
1.54735e-05
2.14035e-05
0.310648
0.858743
0.866292
0.865634
0.865491
0.865538
0.865634
0.866259
0.85917
0.311002
0.0628549
0.0340384
0.0162284
0.0167741
0.0166062
0.0157924
0.0168442
0.0163684
0.033922
0.0632831
0.0174269
0.00090184
0.000368635
0.000276056
0.00026421
0.000284517
0.000302374
0.000277022
0.000890018
0.0175573
0.00627549
0.000203222
7.06049e-05
6.29701e-05
0.000194429
0.00024704
3.10519e-05
0.00011367
0.000205133
0.00634844
0.00275207
8.79035e-05
2.81437e-05
8.91404e-07
6.19569e-05
0.000121243
6.43007e-07
4.98385e-05
8.96379e-05
0.00278184
0.00140605
4.05195e-05
1.37192e-05
7.42684e-08
3.29912e-05
4.3711e-05
2.77026e-07
2.2072e-05
4.1373e-05
0.00141452
0.00080811
1.98997e-05
4.85266e-06
4.26674e-08
5.77009e-06
7.07583e-06
7.75931e-08
9.91874e-06
2.00486e-05
0.000809269
0.000508387
1.09254e-05
5.66953e-06
3.8977e-08
1.60336e-06
1.85399e-06
3.59212e-08
4.41482e-06
1.05844e-05
0.000508174
0.00034315
6.54524e-06
4.4808e-06
3.34403e-08
5.60838e-07
6.66058e-07
2.85856e-08
2.08248e-06
6.28645e-06
0.000343294
0.000244401
5.06812e-06
3.47474e-06
7.49312e-08
2.60727e-07
2.63732e-07
2.34797e-08
7.10222e-07
3.76522e-06
0.000245218
0.000181949
8.75125e-06
2.60855e-06
7.12716e-08
1.45544e-07
1.51959e-07
3.66896e-08
8.70618e-07
6.47014e-06
0.000183435
0.00014026
7.74868e-06
1.87453e-06
8.00232e-08
9.55643e-08
1.04916e-07
6.78706e-08
7.16172e-07
5.94099e-06
0.000142244
0.000111237
1.02859e-05
1.61086e-06
9.91332e-08
6.32988e-08
6.64662e-08
1.10559e-07
5.99864e-07
8.57752e-06
0.000113456
9.03344e-05
9.85514e-06
1.18615e-06
9.87492e-08
1.19863e-07
8.39326e-08
1.76688e-07
2.87588e-07
7.74765e-06
9.27185e-05
7.47678e-05
8.47566e-06
6.39171e-07
7.51456e-08
1.72393e-07
1.04037e-07
1.44241e-07
2.52703e-07
6.46829e-06
7.72782e-05
6.29565e-05
8.86626e-06
3.06799e-07
2.7441e-08
1.97401e-07
1.21385e-07
1.22989e-07
1.95323e-07
6.24209e-06
6.56711e-05
5.37257e-05
9.18849e-06
2.10828e-07
8.97744e-08
2.69972e-07
1.36055e-07
1.39646e-07
1.44966e-07
6.1598e-06
5.65538e-05
4.63551e-05
9.04321e-06
1.71628e-07
9.71205e-08
2.28235e-07
1.83491e-07
1.44253e-07
1.15646e-07
5.68056e-06
4.9554e-05
4.03184e-05
8.92348e-06
3.2171e-07
1.43289e-07
2.59281e-07
1.61815e-07
1.5788e-07
8.90274e-08
5.10828e-06
4.37154e-05
3.52691e-05
8.86504e-06
6.72342e-07
1.54704e-07
2.68642e-07
1.99002e-07
1.76098e-07
7.06334e-08
4.56565e-06
3.92602e-05
3.09271e-05
8.9324e-06
7.91031e-07
1.87548e-07
2.62153e-07
1.87424e-07
1.92291e-07
6.12681e-08
4.0546e-06
3.52145e-05
2.70849e-05
9.33436e-06
9.92809e-07
2.20112e-07
2.67597e-07
1.89401e-07
1.98737e-07
3.32365e-08
3.61046e-06
3.22776e-05
2.36483e-05
9.61611e-06
1.2392e-06
2.68617e-07
2.73901e-07
1.99823e-07
2.05131e-07
8.56357e-08
3.21141e-06
2.9218e-05
2.0448e-05
1.01373e-05
1.61232e-06
3.45954e-07
2.9247e-07
2.15317e-07
2.23535e-07
1.8013e-07
2.83232e-06
2.72056e-05
1.74865e-05
1.11871e-05
2.045e-06
4.68059e-07
3.03954e-07
2.54447e-07
2.3927e-07
2.03545e-07
2.4999e-06
2.46024e-05
1.4632e-05
1.22514e-05
2.94891e-06
6.68413e-07
3.47168e-07
2.65139e-07
2.55727e-07
2.73997e-07
2.1431e-06
2.30547e-05
1.18891e-05
1.2981e-05
4.48416e-06
1.03196e-06
4.58037e-07
3.39258e-07
3.00956e-07
3.3481e-07
1.87047e-06
2.04972e-05
9.19228e-06
1.40029e-05
6.81722e-06
1.7096e-06
6.36566e-07
4.09437e-07
3.86817e-07
3.91736e-07
1.56062e-06
1.88865e-05
6.82517e-06
1.58015e-05
9.48706e-06
2.9958e-06
1.09576e-06
6.60622e-07
5.06257e-07
5.85205e-07
1.52478e-06
1.53244e-05
5.40483e-06
1.81194e-05
1.41371e-05
5.73067e-06
2.21907e-06
1.12843e-06
8.03984e-07
7.55926e-07
2.04125e-06
1.33922e-05
0.310347
0.858262
0.865673
0.865017
0.86486
0.864866
0.865042
0.865689
0.858685
0.310722
0.0624089
0.0335573
0.016244
0.016807
0.0166518
0.0167469
0.0163711
0.0160405
0.0334725
0.0628333
0.0171843
0.000867217
0.00033218
0.000317698
0.00027827
0.000308823
0.000361836
0.000335852
0.00086441
0.0173106
0.00615789
0.000200403
0.000132519
3.06392e-06
1.36053e-05
7.63357e-06
3.54852e-05
0.000118022
0.000200432
0.00622308
0.00269569
8.72534e-05
8.75876e-05
1.3578e-07
1.35424e-06
3.76048e-09
1.15528e-05
0.000108545
8.72929e-05
0.00272117
0.00137797
4.02888e-05
1.03162e-05
1.02072e-09
5.26177e-08
4.23779e-09
4.62602e-06
5.46566e-05
4.03908e-05
0.00138531
0.0007932
1.98771e-05
1.59674e-06
2.19251e-10
2.24647e-10
2.97324e-10
1.68513e-06
3.01997e-05
1.97079e-05
0.000794711
0.000499882
1.12643e-05
2.50048e-07
1.29924e-10
1.24876e-10
2.16679e-10
1.53954e-06
1.61605e-05
1.08099e-05
0.000499956
0.000337655
6.93278e-06
7.72685e-08
1.13429e-10
1.18536e-10
3.11104e-10
1.18738e-06
5.86467e-06
6.58559e-06
0.000338675
0.000240779
7.08754e-06
5.8615e-08
2.16089e-09
9.81058e-11
2.14663e-10
8.95055e-07
4.76783e-06
4.1911e-06
0.000242047
0.000179392
7.69401e-06
4.48666e-08
1.11464e-09
8.62282e-11
7.87547e-11
6.0063e-07
3.24961e-06
6.87639e-06
0.000181755
0.000138423
1.26255e-05
1.60061e-07
1.47422e-09
5.34829e-11
3.59621e-10
4.57673e-07
1.60273e-06
6.56799e-06
0.000141056
0.000109885
1.06924e-05
1.68675e-07
3.05567e-09
4.6528e-11
2.7671e-08
2.77867e-07
1.14241e-06
8.4483e-06
0.000112651
8.92378e-05
1.13873e-05
3.5978e-07
4.081e-09
1.65277e-10
1.30727e-08
1.30593e-07
6.8364e-07
8.4265e-06
9.22098e-05
7.39165e-05
9.44981e-06
3.92495e-07
4.954e-09
1.05671e-09
1.14362e-08
1.22671e-07
5.6572e-07
6.47411e-06
7.70655e-05
6.22352e-05
1.01e-05
3.41147e-07
6.57687e-09
1.04095e-09
6.31298e-09
6.81355e-08
4.01831e-07
6.48989e-06
6.57953e-05
5.313e-05
1.00435e-05
4.15493e-07
7.33397e-09
1.17335e-09
3.15118e-09
4.77956e-08
2.0778e-07
6.99772e-06
5.69298e-05
4.58445e-05
9.71289e-06
5.21508e-07
1.4058e-08
1.62336e-09
1.56959e-09
2.53205e-08
1.15282e-07
6.72099e-06
5.01432e-05
3.98981e-05
9.48628e-06
6.10496e-07
1.73882e-08
1.91097e-09
1.15139e-09
9.55626e-09
6.26813e-08
6.07126e-06
4.43891e-05
3.49103e-05
9.22006e-06
7.37816e-07
2.86959e-08
3.10645e-09
8.43246e-10
6.54628e-09
3.2304e-08
5.40141e-06
4.00217e-05
3.0635e-05
9.25462e-06
8.56004e-07
4.23318e-08
4.07784e-09
7.55182e-10
4.85561e-09
1.57652e-08
4.67995e-06
3.59546e-05
2.68674e-05
9.38952e-06
1.01485e-06
6.71524e-08
5.172e-09
6.96268e-10
3.41214e-09
2.55114e-08
4.07098e-06
3.30461e-05
2.34892e-05
9.66823e-06
1.1817e-06
9.33284e-08
1.16462e-08
1.24015e-09
2.71949e-09
3.19634e-08
3.43572e-06
2.98973e-05
2.03923e-05
1.01379e-05
1.52655e-06
1.50502e-07
1.53009e-08
2.96371e-09
2.04204e-09
4.27237e-08
2.93811e-06
2.78807e-05
1.74917e-05
1.08007e-05
1.85222e-06
2.22842e-07
3.35239e-08
3.84297e-09
1.86953e-09
2.45582e-08
2.40122e-06
2.51323e-05
1.4788e-05
1.18597e-05
2.48547e-06
3.53624e-07
4.65555e-08
1.3095e-08
2.65467e-09
3.0546e-08
2.00069e-06
2.35682e-05
1.21861e-05
1.21308e-05
3.74311e-06
5.59352e-07
1.00285e-07
1.50461e-08
8.73809e-09
3.0182e-08
1.53437e-06
2.07501e-05
9.75115e-06
1.27222e-05
5.47718e-06
1.079e-06
1.78388e-07
3.64227e-08
1.34817e-08
2.73375e-08
1.23716e-06
1.90528e-05
7.46339e-06
1.33738e-05
7.17084e-06
1.69473e-06
3.708e-07
7.25437e-08
2.22485e-08
3.18085e-08
8.7184e-07
1.5337e-05
5.50837e-06
1.43698e-05
9.48645e-06
2.9561e-06
7.37254e-07
1.91517e-07
6.8503e-08
4.87309e-08
8.84246e-07
1.25824e-05
0.310274
0.858122
0.865497
0.864867
0.864715
0.864719
0.864868
0.865487
0.858548
0.310649
0.0622735
0.0335363
0.0166262
0.0167338
0.0167158
0.0165735
0.0167532
0.0166474
0.0334609
0.0626966
0.0170967
0.000866249
0.00027757
0.000307335
0.000309404
0.000292886
0.000310903
0.000252351
0.000866121
0.0172218
0.00610974
0.000200425
0.000214931
2.03858e-05
3.98307e-06
0.000134618
7.03774e-06
5.93864e-05
0.000198747
0.0061714
0.00266879
8.68104e-05
6.96842e-05
1.37139e-06
2.06607e-07
3.44303e-05
5.42053e-09
4.71685e-06
8.60315e-05
0.00269226
0.00136209
4.01686e-05
4.05774e-05
2.95313e-09
9.80817e-09
8.56906e-07
1.85072e-09
4.95102e-07
3.96628e-05
0.00136871
0.000783294
1.98404e-05
8.65623e-06
3.81326e-10
3.03371e-12
1.3029e-08
5.4368e-09
1.89964e-07
1.93939e-05
0.000784526
0.00049335
1.11508e-05
1.39013e-06
1.6748e-10
4.31773e-14
2.56153e-12
5.01253e-09
1.36935e-07
1.05767e-05
0.000493587
0.00033307
7.049e-06
1.51056e-07
1.20943e-10
2.53787e-13
1.56505e-12
3.07871e-09
8.38262e-08
6.59027e-06
0.000334
0.00023756
6.10016e-06
6.73441e-08
5.0823e-10
7.08304e-13
1.39716e-13
1.53734e-09
5.02313e-08
3.88307e-06
0.000239096
0.000176921
7.34108e-06
9.58206e-09
6.87153e-10
6.22287e-13
8.55446e-14
5.76519e-10
3.39738e-08
6.32087e-06
0.000179174
0.000136596
1.19741e-05
2.50105e-07
1.46879e-09
1.0207e-12
1.12866e-13
2.70312e-10
6.69115e-08
6.1116e-06
0.000139357
0.00010833
1.17095e-05
3.00399e-07
1.77269e-09
5.76268e-12
1.89101e-13
1.31957e-10
8.61755e-08
8.06808e-06
0.000111527
8.80678e-05
9.89611e-06
3.44814e-07
4.10317e-09
2.5976e-11
3.65812e-13
6.53531e-11
8.0563e-08
7.46583e-06
9.14619e-05
7.30236e-05
9.64484e-06
4.26742e-07
5.73375e-09
1.95376e-11
1.23744e-12
1.02657e-10
7.2388e-08
6.10457e-06
7.64709e-05
6.15693e-05
1.04027e-05
5.52059e-07
8.91663e-09
1.61327e-10
1.03288e-12
8.97665e-11
7.89113e-08
5.86631e-06
6.52032e-05
5.26201e-05
1.02047e-05
5.17773e-07
1.30231e-08
5.75414e-11
7.98428e-12
8.56228e-11
8.21149e-08
5.94966e-06
5.63143e-05
4.54567e-05
9.83333e-06
5.7352e-07
1.89949e-08
4.53054e-10
1.36227e-11
8.9045e-11
7.47151e-08
5.55701e-06
4.94874e-05
3.96104e-05
9.36963e-06
6.50633e-07
2.50394e-08
4.31563e-10
1.23565e-11
8.01447e-11
8.54555e-08
4.99272e-06
4.37553e-05
3.46748e-05
9.1555e-06
7.94469e-07
3.52831e-08
1.56166e-09
3.47049e-11
8.38974e-11
5.60854e-08
4.45773e-06
3.93817e-05
3.04758e-05
9.24613e-06
8.87278e-07
4.90481e-08
1.1473e-09
7.34586e-11
1.1192e-10
6.84157e-08
3.91618e-06
3.53746e-05
2.67713e-05
9.43321e-06
1.11965e-06
6.8038e-08
5.89828e-09
2.17206e-10
1.37712e-10
6.81817e-08
3.46754e-06
3.24694e-05
2.34145e-05
9.71056e-06
1.19596e-06
9.92306e-08
6.44336e-09
4.23248e-10
1.57415e-10
6.15869e-08
2.98612e-06
2.93778e-05
2.03249e-05
9.85005e-06
1.40762e-06
1.29151e-07
1.55802e-08
5.32665e-10
2.13623e-10
5.32935e-08
2.59479e-06
2.73547e-05
1.74342e-05
1.03753e-05
1.66543e-06
1.93391e-07
1.87072e-08
2.64585e-09
2.74828e-10
4.48749e-08
2.15245e-06
2.46645e-05
1.47159e-05
1.14537e-05
2.28942e-06
2.86683e-07
4.4703e-08
3.53553e-09
2.20412e-10
3.39269e-08
1.79796e-06
2.3034e-05
1.21146e-05
1.1898e-05
3.43978e-06
5.16573e-07
6.42879e-08
1.23647e-08
2.27356e-09
2.63056e-08
1.38873e-06
2.03177e-05
9.61759e-06
1.24716e-05
5.14524e-06
9.20151e-07
1.61148e-07
2.02436e-08
4.95544e-09
1.48739e-08
1.11372e-06
1.85053e-05
7.30015e-06
1.33011e-05
7.01547e-06
1.58625e-06
2.95777e-07
6.76731e-08
7.08465e-09
1.75683e-08
7.63542e-07
1.48903e-05
5.16862e-06
1.42126e-05
9.28897e-06
2.72183e-06
6.68408e-07
1.51171e-07
4.6998e-08
1.85122e-08
7.22475e-07
1.16951e-05
0.310274
0.858119
0.865541
0.864867
0.864717
0.864712
0.864867
0.865491
0.858546
0.310648
0.0622734
0.0335503
0.0159331
0.0165621
0.0165875
0.0165389
0.0167507
0.0168356
0.0334657
0.0626959
0.0170962
0.000865312
0.000336558
0.000279269
0.000294817
0.000281771
0.000309816
0.000302876
0.000865453
0.0172205
0.00610917
0.000199106
0.00012268
0.000142348
0.000123838
0.000139073
4.48787e-06
5.51078e-05
0.000198452
0.00617001
0.00266833
8.64669e-05
9.54076e-05
5.20721e-06
5.75051e-05
1.22494e-05
1.37286e-07
5.2382e-07
8.58823e-05
0.00269123
0.00136187
3.99682e-05
6.59413e-05
6.45304e-07
6.05798e-08
1.5203e-10
6.99566e-09
7.74655e-08
3.94395e-05
0.00136819
0.000783185
1.97188e-05
3.22833e-05
3.11199e-07
2.88749e-12
3.23455e-13
1.14543e-09
7.5324e-08
1.93014e-05
0.000784276
0.000493344
1.137e-05
1.89759e-05
8.57566e-08
5.1348e-13
2.67281e-14
2.59154e-10
9.0204e-08
1.04926e-05
0.000493624
0.000333056
6.43579e-06
1.36375e-05
7.62926e-08
6.18435e-12
1.09212e-13
1.17888e-10
7.082e-08
6.61915e-06
0.000333916
0.000237577
8.09578e-06
8.45061e-06
2.62516e-08
1.03759e-12
1.51563e-13
8.46935e-11
5.49069e-08
3.94621e-06
0.000239068
0.000176957
9.00828e-06
5.36385e-06
7.04611e-09
1.85823e-12
3.81606e-13
7.18e-11
8.87335e-08
6.07022e-06
0.000179124
0.000136539
1.19039e-05
3.30735e-06
9.50626e-09
3.02921e-12
2.12062e-12
1.2831e-10
1.35422e-07
7.91396e-06
0.000139372
0.000108373
1.06686e-05
2.34622e-06
2.97642e-09
2.33894e-12
2.39973e-13
2.18332e-10
5.68098e-08
7.41527e-06
0.000111593
8.8079e-05
1.12136e-05
1.47658e-06
2.13645e-09
3.56369e-12
6.80511e-12
2.18405e-10
1.0961e-07
7.96893e-06
9.15421e-05
7.30348e-05
9.16528e-06
7.8679e-07
3.39566e-09
5.29819e-12
2.81964e-12
5.34774e-10
1.26237e-07
6.06516e-06
7.6531e-05
6.15589e-05
9.99405e-06
3.42278e-07
1.94008e-09
6.54968e-12
4.88143e-12
5.06882e-10
1.34857e-07
6.74878e-06
6.52474e-05
5.26064e-05
9.93594e-06
1.81046e-07
1.59935e-09
7.65392e-12
4.92614e-12
4.6556e-10
1.34562e-07
6.68078e-06
5.63647e-05
4.54385e-05
9.60022e-06
1.42803e-07
8.92492e-10
7.28093e-12
7.05089e-12
4.73554e-10
1.30767e-07
6.26782e-06
4.95672e-05
3.9588e-05
9.28451e-06
2.41205e-07
6.63169e-09
6.80869e-12
6.87305e-12
4.92806e-10
1.24558e-07
5.69879e-06
4.38773e-05
3.46742e-05
9.06503e-06
5.40065e-07
1.41223e-08
3.4485e-10
3.06368e-10
4.99957e-10
1.15715e-07
5.14684e-06
3.9562e-05
3.04552e-05
9.16319e-06
5.72539e-07
2.36068e-08
8.85071e-10
6.66728e-11
4.9606e-10
1.06078e-07
4.54406e-06
3.55916e-05
2.6755e-05
9.18575e-06
8.23747e-07
3.36286e-08
1.24998e-09
4.36112e-11
4.83257e-10
9.30884e-08
4.00852e-06
3.27119e-05
2.34033e-05
9.80451e-06
1.10037e-06
6.84971e-08
2.31985e-09
1.84877e-10
4.25363e-10
8.12827e-08
3.43781e-06
2.96464e-05
2.0317e-05
9.86779e-06
1.44114e-06
1.17184e-07
8.99958e-09
8.67642e-11
4.60478e-10
6.75023e-08
2.95382e-06
2.76226e-05
1.74245e-05
1.03637e-05
1.69524e-06
1.91164e-07
1.55102e-08
1.67532e-09
4.67122e-10
5.45338e-08
2.42021e-06
2.4915e-05
1.47003e-05
1.14223e-05
2.35706e-06
2.9851e-07
4.33204e-08
2.97096e-09
6.86088e-10
4.05635e-08
2.00905e-06
2.33538e-05
1.20944e-05
1.18673e-05
3.44219e-06
5.0393e-07
6.36131e-08
1.18993e-08
1.7919e-09
3.06095e-08
1.5291e-06
2.05265e-05
9.59193e-06
1.24335e-05
5.13626e-06
9.41264e-07
1.66548e-07
2.04606e-08
4.26729e-09
1.8655e-08
1.22337e-06
1.88134e-05
7.27269e-06
1.32664e-05
7.016e-06
1.58186e-06
2.96661e-07
6.86795e-08
6.45884e-09
1.73002e-08
8.33018e-07
1.49552e-05
5.14509e-06
1.41951e-05
9.28344e-06
2.76261e-06
6.82416e-07
1.54652e-07
4.43709e-08
2.10497e-08
8.5412e-07
1.27432e-05
0.310349
0.858259
0.865632
0.86502
0.864865
0.864889
0.865017
0.865639
0.858682
0.310721
0.0624095
0.0335529
0.0166876
0.0166046
0.0166982
0.0162378
0.0167823
0.0168125
0.0334663
0.0628314
0.017183
0.000867655
0.000271961
0.000283016
0.000293376
0.000365025
0.000316081
0.00029754
0.000863626
0.0173068
0.0061552
0.00019903
0.000114668
0.000142328
1.17093e-05
2.75072e-05
3.26785e-05
0.00011372
0.000199044
0.00621707
0.00269329
8.614e-05
4.74397e-05
1.09282e-05
4.92968e-09
1.0071e-05
7.17176e-09
7.06288e-05
8.63397e-05
0.00271634
0.00137675
3.9799e-05
2.88274e-05
2.41622e-08
7.70064e-11
4.11635e-08
1.08432e-10
1.51886e-05
3.96555e-05
0.00138284
0.000792736
1.96656e-05
7.94122e-06
5.34771e-10
9.43631e-11
3.0931e-10
2.52217e-10
5.11216e-06
1.9505e-05
0.00079358
0.000499747
1.13076e-05
1.76062e-06
3.9264e-10
8.33442e-11
6.65713e-11
1.01474e-09
9.28389e-07
1.04738e-05
0.000499953
0.000337607
6.89443e-06
3.02001e-07
2.18289e-10
2.50528e-10
9.67859e-11
3.32338e-10
2.14221e-07
6.75609e-06
0.000338597
0.000240846
7.44429e-06
1.09741e-07
1.25291e-10
4.52368e-10
6.42882e-09
2.29346e-10
7.49687e-08
4.26652e-06
0.000242571
0.000179464
8.72076e-06
6.38998e-08
9.12005e-11
5.81572e-10
8.21029e-10
9.54364e-10
3.67823e-08
5.78581e-06
0.000181738
0.000138432
1.19614e-05
1.25066e-07
4.89907e-10
8.81817e-10
1.83929e-09
1.94729e-09
2.40987e-08
7.07211e-06
0.00014124
0.000109853
1.03018e-05
1.72576e-07
9.15098e-10
1.3901e-09
2.10075e-09
4.12927e-09
4.75619e-08
7.00881e-06
0.000113053
8.91567e-05
1.12031e-05
2.9434e-07
2.67701e-09
1.18788e-09
2.27001e-09
2.96862e-09
5.77192e-08
7.5395e-06
9.27327e-05
7.378e-05
9.29213e-06
3.05476e-07
3.41826e-09
1.60925e-09
2.19729e-09
4.60138e-09
9.80007e-08
6.09602e-06
7.75538e-05
6.21062e-05
9.08661e-06
3.96674e-07
5.20798e-09
1.73266e-09
2.33105e-09
5.32561e-09
6.91527e-08
6.54009e-06
6.61064e-05
5.30359e-05
9.89872e-06
4.81346e-07
1.01342e-08
1.56129e-09
2.147e-09
4.87159e-09
1.17241e-07
6.6952e-06
5.71188e-05
4.57913e-05
1.01943e-05
5.61566e-07
1.3396e-08
2.18351e-09
2.22467e-09
4.87645e-09
9.2493e-08
6.4183e-06
5.02361e-05
3.98593e-05
9.57587e-06
6.52278e-07
2.52358e-08
2.04497e-09
2.18771e-09
4.79147e-09
1.13789e-07
5.9454e-06
4.45136e-05
3.48869e-05
9.49841e-06
7.59365e-07
3.25339e-08
3.05657e-09
2.72336e-09
5.09278e-09
1.1772e-07
5.3746e-06
4.01257e-05
3.06327e-05
9.60496e-06
8.41391e-07
5.33616e-08
4.37075e-09
2.93328e-09
4.99488e-09
1.10329e-07
4.75043e-06
3.61264e-05
2.68638e-05
9.73989e-06
1.06134e-06
6.87048e-08
5.45524e-09
3.37672e-09
4.99935e-09
9.82135e-08
4.16641e-06
3.31802e-05
2.34657e-05
1.00069e-05
1.15282e-06
9.02507e-08
1.17648e-08
4.11304e-09
5.24939e-09
8.35016e-08
3.54177e-06
3.00563e-05
2.03483e-05
1.0149e-05
1.43705e-06
1.37148e-07
1.35794e-08
4.72964e-09
5.58112e-09
6.89625e-08
3.03717e-06
2.80091e-05
1.74284e-05
1.05656e-05
1.73016e-06
1.94866e-07
3.02775e-08
5.50445e-09
5.93027e-09
5.41593e-08
2.45867e-06
2.52175e-05
1.47185e-05
1.16673e-05
2.32389e-06
3.26687e-07
3.98626e-08
1.18261e-08
6.55712e-09
4.27565e-08
2.05666e-06
2.36863e-05
1.21191e-05
1.19831e-05
3.57354e-06
5.1048e-07
8.83734e-08
1.44766e-08
1.00557e-08
3.15541e-08
1.54343e-06
2.07762e-05
9.68429e-06
1.26288e-05
5.34903e-06
1.01645e-06
1.60481e-07
3.94098e-08
1.18393e-08
3.05446e-08
1.25595e-06
1.91179e-05
7.41189e-06
1.33722e-05
7.14547e-06
1.66063e-06
3.56416e-07
6.5399e-08
2.8961e-08
3.08886e-08
8.5784e-07
1.51812e-05
5.45561e-06
1.43971e-05
9.51117e-06
2.88073e-06
7.21839e-07
1.97004e-07
5.17067e-08
4.88709e-08
8.78273e-07
1.28815e-05
0.310638
0.858749
0.86623
0.865638
0.865488
0.865485
0.86564
0.86623
0.859164
0.311003
0.0628659
0.0340806
0.016847
0.0166691
0.01682
0.0167341
0.0166177
0.0168175
0.0339789
0.0632867
0.0174223
0.00090621
0.000279933
0.000268026
0.000287897
0.000262596
0.000257132
0.000267654
0.000899536
0.0175507
0.00626457
0.00019898
0.00010162
0.00019527
2.517e-05
4.13954e-05
5.47147e-05
9.13507e-05
0.000199273
0.0063299
0.00274126
8.422e-05
7.44734e-05
9.32275e-05
8.09049e-07
2.45924e-06
4.51567e-06
7.33698e-05
8.5007e-05
0.00276626
0.00139979
3.8462e-05
3.74676e-05
1.48552e-05
9.83082e-08
1.62962e-07
2.60527e-07
3.2608e-05
3.84674e-05
0.0014058
0.000805447
1.90746e-05
2.01157e-05
7.05138e-06
8.74264e-08
5.09926e-08
8.05622e-08
1.71074e-05
1.88628e-05
0.000805383
0.000507505
1.06162e-05
1.27787e-05
1.8386e-06
6.769e-08
7.47094e-08
6.2916e-08
7.36308e-06
1.01704e-05
0.000507299
0.000342837
6.5893e-06
5.90914e-06
5.67072e-07
5.68436e-08
8.66292e-08
5.02601e-08
2.76673e-06
6.01115e-06
0.000343082
0.000244517
6.39224e-06
2.96834e-06
1.86139e-07
6.20044e-08
7.55462e-08
8.67088e-08
2.40014e-06
5.28951e-06
0.000245327
0.000182081
7.50933e-06
1.87364e-06
8.39424e-08
1.05579e-07
1.06547e-07
1.3048e-07
1.59222e-06
6.68362e-06
0.000183447
0.000140452
1.05487e-05
1.15776e-06
4.57387e-08
1.96577e-07
1.53436e-07
2.39159e-07
8.11443e-07
1.09581e-05
0.000142232
0.000111431
1.02128e-05
6.43091e-07
3.61006e-08
1.59381e-07
4.63124e-08
4.42139e-07
5.02879e-07
9.27997e-06
0.000113499
9.04734e-05
1.00476e-05
2.68427e-07
5.24636e-08
1.45055e-07
1.58143e-07
2.649e-07
4.12217e-07
1.02398e-05
9.27974e-05
7.485e-05
8.66369e-06
2.08898e-07
8.32236e-08
1.83854e-07
2.04403e-07
3.4029e-07
2.97674e-07
7.61527e-06
7.74373e-05
6.29941e-05
9.21617e-06
1.70749e-07
9.42121e-08
2.03822e-07
2.39336e-07
3.8449e-07
1.70033e-07
8.36129e-06
6.59099e-05
5.3742e-05
9.36625e-06
1.27675e-07
1.22802e-07
2.03824e-07
2.58418e-07
3.80125e-07
9.59212e-08
8.0441e-06
5.68537e-05
4.63549e-05
9.23933e-06
2.5318e-07
1.40549e-07
1.99043e-07
2.69957e-07
3.50059e-07
6.00658e-08
7.30687e-06
4.98898e-05
4.03196e-05
9.06256e-06
5.41803e-07
1.91143e-07
1.94591e-07
2.7333e-07
3.35095e-07
1.02518e-07
6.45964e-06
4.408e-05
3.52555e-05
8.94236e-06
5.82682e-07
2.5688e-07
1.85009e-07
2.60458e-07
3.15451e-07
1.48674e-07
5.66265e-06
3.96311e-05
3.09158e-05
9.08683e-06
8.14289e-07
2.71406e-07
1.91246e-07
2.56023e-07
3.04962e-07
1.76321e-07
4.90822e-06
3.55886e-05
2.70767e-05
9.20908e-06
1.04568e-06
3.1684e-07
2.04918e-07
2.53294e-07
2.86506e-07
1.75047e-07
4.25549e-06
3.26187e-05
2.36338e-05
9.62559e-06
1.29512e-06
3.54559e-07
2.18006e-07
2.52981e-07
2.95052e-07
1.91667e-07
3.65904e-06
2.95353e-05
2.04287e-05
1.01112e-05
1.60904e-06
4.60678e-07
2.58447e-07
2.65832e-07
2.81212e-07
2.13007e-07
3.12804e-06
2.74875e-05
1.74404e-05
1.10656e-05
1.94992e-06
5.14938e-07
2.75205e-07
2.75192e-07
3.04124e-07
2.38857e-07
2.65854e-06
2.48224e-05
1.45767e-05
1.2167e-05
2.80453e-06
7.25552e-07
3.45742e-07
2.97134e-07
3.1209e-07
2.77502e-07
2.19899e-06
2.3269e-05
1.18081e-05
1.2838e-05
4.20609e-06
9.88496e-07
4.2582e-07
3.54837e-07
3.55059e-07
3.19004e-07
1.89049e-06
2.07084e-05
9.1034e-06
1.39126e-05
6.5088e-06
1.68099e-06
6.92407e-07
4.43815e-07
4.30755e-07
4.04472e-07
1.48789e-06
1.87679e-05
6.71723e-06
1.55916e-05
9.10418e-06
2.73228e-06
9.45694e-07
5.96868e-07
5.62309e-07
5.4505e-07
1.58196e-06
1.56367e-05
5.28871e-06
1.78748e-05
1.3705e-05
5.27007e-06
2.09095e-06
1.03295e-06
8.05044e-07
7.76038e-07
1.95433e-06
1.28124e-05
0.311713
0.841163
0.859161
0.858675
0.858539
0.858538
0.858674
0.859155
0.841532
0.312058
0.0638521
0.0610881
0.033921
0.0334676
0.0334779
0.0334586
0.0334644
0.0339699
0.0609369
0.0642478
0.0178025
0.00343733
0.000886426
0.00086206
0.00086698
0.00086186
0.000860973
0.000893172
0.00346331
0.017963
0.00643673
0.000412338
0.000206283
0.000201417
0.00019898
0.000199495
0.000199577
0.000200705
0.000391244
0.00651616
0.00280987
0.000139154
9.01846e-05
8.80264e-05
8.61421e-05
8.63959e-05
8.64519e-05
8.60567e-05
0.000141447
0.00284503
0.00142077
6.70047e-05
4.16505e-05
4.06022e-05
3.97468e-05
3.98832e-05
3.98267e-05
3.91013e-05
7.00494e-05
0.00142838
0.000807903
4.122e-05
2.03135e-05
1.99561e-05
1.95573e-05
1.96197e-05
1.95596e-05
1.90481e-05
3.99283e-05
0.000805764
0.000503601
2.55755e-05
1.07099e-05
1.06691e-05
1.08181e-05
1.07843e-05
1.10289e-05
1.06183e-05
2.46281e-05
0.000500372
0.000337019
3.194e-05
6.48746e-06
7.23049e-06
6.58851e-06
6.72054e-06
6.38457e-06
6.02512e-06
2.70866e-05
0.000335141
0.000238547
2.64231e-05
3.87637e-06
4.46227e-06
5.22482e-06
4.79458e-06
6.97632e-06
5.78215e-06
2.42019e-05
0.000238146
0.000176769