/*--------------------------------*- C++ -*----------------------------------*\
| =========                 |                                                 |
| \\      /  F ield         | OpenFOAM: The Open Source CFD Toolbox           |
|  \\    /   O peration     | Version:  4.1                                   |
|   \\  /    A nd           | Web:      www.OpenFOAM.org                      |
|    \\/     M anipulation  |                                                 |
\*---------------------------------------------------------------------------*/
FoamFile
{
    version     2.0;
    format      ascii;
    class       volScalarField;
    location    "1300";
    object      k;
}
// * * * * * * * * * * * * * * * * * * * * * * * * * * * * * * * * * * * * * //

dimensions      [0 2 -2 0 0 0 0];

internalField   nonuniform List<scalar> 
12000
(
0.116518
0.113726
0.113406
0.113332
0.113313
0.113313
0.113331
0.113408
0.113767
0.116563
0.0404725
0.039785
0.0394942
0.0393162
0.0392609
0.0392612
0.0393161
0.0394896
0.0397705
0.0404498
0.0169427
0.01696
0.0167732
0.0166299
0.0165762
0.0165768
0.0166316
0.016777
0.0169562
0.0169378
0.00840067
0.00855679
0.00845282
0.00836026
0.00832041
0.00832102
0.00836361
0.00846045
0.00855364
0.00839806
0.00478357
0.00493453
0.00488316
0.00482501
0.00479568
0.00479677
0.00482808
0.00489056
0.00492803
0.00478286
0.00302326
0.00314979
0.00312938
0.00309159
0.00306986
0.00307005
0.00309345
0.0031356
0.00314821
0.00302753
0.00206668
0.00216666
0.00216846
0.00214316
0.00212581
0.00212685
0.00214454
0.0021708
0.00216766
0.00207387
0.00150229
0.00158624
0.0015936
0.0015762
0.00156358
0.00156448
0.00157838
0.0015971
0.00158913
0.00150982
0.00114498
0.00121347
0.0012278
0.00121547
0.00120531
0.00120587
0.00121698
0.00123073
0.00121674
0.00115297
0.000906139
0.000964383
0.000979904
0.000971071
0.000962734
0.000963335
0.000972719
0.000983066
0.000967723
0.000914709
0.000738349
0.000785557
0.000805298
0.000799051
0.000792627
0.000793039
0.000800443
0.000808431
0.000788701
0.000747858
0.00061617
0.00065768
0.000676862
0.000671497
0.000665811
0.000667364
0.000674931
0.000680947
0.000662234
0.000626952
0.000524191
0.000562806
0.000580517
0.000576413
0.000571942
0.000573529
0.000579267
0.000584438
0.00056832
0.000536581
0.000452945
0.000489515
0.0005068
0.000503957
0.000500599
0.000501489
0.000506166
0.000511062
0.000495899
0.000467176
0.000396413
0.000431296
0.000448505
0.000446519
0.00044393
0.00044487
0.000448825
0.000453442
0.000438803
0.000412796
0.000350586
0.000384277
0.000401536
0.000400373
0.000398564
0.000399591
0.000403113
0.000407239
0.000392977
0.000369386
0.000312672
0.000345681
0.000363097
0.000362631
0.000361507
0.00036254
0.000365696
0.000369758
0.000356037
0.000334449
0.000280637
0.000313569
0.000330981
0.000331294
0.000330962
0.000332223
0.000335136
0.000338991
0.000325899
0.000305877
0.000252938
0.000286253
0.00030385
0.000304964
0.000305201
0.000306591
0.000309534
0.000313697
0.000301545
0.000282738
0.000228291
0.000262524
0.000280417
0.000282461
0.000283502
0.000285447
0.000288338
0.00029246
0.000281348
0.000263479
0.000205658
0.000241176
0.00025998
0.000263083
0.000264574
0.000266807
0.000270041
0.000274812
0.000265179
0.000248187
0.000184006
0.000221434
0.000241507
0.00024592
0.000248359
0.000251512
0.000254872
0.000259723
0.000251467
0.000235208
0.000162374
0.000201955
0.000224661
0.000230662
0.000233545
0.000237075
0.000241268
0.000247274
0.000240972
0.00022563
0.000139422
0.00018204
0.000208068
0.000216443
0.000220764
0.000225582
0.000230026
0.000236354
0.000231737
0.000217488
0.000113806
0.000159558
0.000191692
0.00020295
0.000208028
0.000213327
0.00021941
0.000227686
0.000225454
0.000212698
8.19341e-05
0.000133897
0.00017282
0.000189205
0.000197023
0.000204079
0.000210265
0.000219618
0.000219423
0.000209145
4.47286e-05
0.000100545
0.000151522
0.000173111
0.000183431
0.00019191
0.000201092
0.000213699
0.000216396
0.000208623
3.17457e-05
6.81831e-05
0.000119755
0.000154057
0.000171008
0.000182224
0.000190745
0.000206223
0.000213564
0.000212217
4.46706e-05
6.45506e-05
8.28096e-05
0.000110126
0.000142365
0.000166113
0.000180674
0.000198572
0.000213696
0.000213619
7.18234e-05
9.15145e-05
9.99403e-05
0.000100158
0.000106006
0.000123202
0.000149312
0.000184026
0.000207206
0.00022783
0.113726
0.019148
0.0168109
0.0167999
0.0168016
0.0168016
0.0167999
0.0168108
0.019137
0.113686
0.0397837
0.00150909
0.000830701
0.000824414
0.000824082
0.000824297
0.000824177
0.000833324
0.00150555
0.0396161
0.0169581
0.000849942
0.000453388
0.000431086
0.00043292
0.000431862
0.000432929
0.000441673
0.00086079
0.0168822
0.00855414
0.000967298
0.000295617
0.00028642
0.000285816
0.000287072
0.000285826
0.000302666
0.000924113
0.00852294
0.00493176
0.000754375
0.000189629
0.000196001
0.00019256
0.000201119
0.000196352
0.000210814
0.000737792
0.00493247
0.00314706
0.000553408
0.000145123
0.000150155
0.000155873
0.000146124
0.000143126
0.000169788
0.000555606
0.00316072
0.00216387
0.000342585
0.000116766
0.000121696
0.000109519
0.000138871
0.000137098
0.000102449
0.00033751
0.00218053
0.00158334
0.000406397
7.06371e-05
7.47702e-05
0.000103234
0.000125074
0.000124294
0.000127779
0.000407327
0.00159425
0.0012104
0.000353956
9.63038e-05
0.000102763
0.000116592
0.000115128
0.000115368
0.000123055
0.000322057
0.0012195
0.000961086
0.000318349
7.16976e-05
8.47096e-05
8.88167e-05
8.55766e-05
8.48581e-05
8.75846e-05
0.000265167
0.000968976
0.000781923
0.000286774
5.8546e-05
7.06489e-05
7.25171e-05
6.90469e-05
6.72032e-05
7.03217e-05
0.000225322
0.000789703
0.000653672
0.000236938
5.96689e-05
7.51804e-05
8.18401e-05
7.5527e-05
6.36194e-05
7.08845e-05
0.000220063
0.000663362
0.000558326
0.000214844
6.88546e-05
7.90737e-05
8.30479e-05
7.82799e-05
6.25455e-05
7.31318e-05
0.000203775
0.000570165
0.000484502
0.000196717
6.97904e-05
7.90196e-05
8.26045e-05
7.7622e-05
6.61135e-05
7.32669e-05
0.000186565
0.000498714
0.000425673
0.000178141
7.12592e-05
8.00955e-05
8.42124e-05
7.94511e-05
6.56159e-05
7.27411e-05
0.000169575
0.000442218
0.000377929
0.000166714
7.11564e-05
8.17813e-05
8.79952e-05
7.77259e-05
6.58431e-05
7.15257e-05
0.000155449
0.000396745
0.000338517
0.000158803
6.90305e-05
7.98571e-05
8.78497e-05
7.34732e-05
6.52886e-05
6.9038e-05
0.000144893
0.000359364
0.000305464
0.000155154
6.65993e-05
7.66953e-05
8.33584e-05
6.82931e-05
6.50632e-05
6.6818e-05
0.00013764
0.000329013
0.000277167
0.000152437
6.73739e-05
7.28451e-05
7.88221e-05
6.49515e-05
6.40156e-05
6.43517e-05
0.000131594
0.000303549
0.000252353
0.00015351
6.77899e-05
7.05519e-05
7.42013e-05
6.09021e-05
6.25916e-05
6.29818e-05
0.000125997
0.000283041
0.000230078
0.000154749
6.85125e-05
6.76326e-05
6.89712e-05
6.01414e-05
6.13505e-05
6.14689e-05
0.00011961
0.000265079
0.000209427
0.000158856
7.10573e-05
6.69293e-05
6.72843e-05
5.97505e-05
6.04907e-05
6.08658e-05
0.000113074
0.000250795
0.000189734
0.000162209
7.48781e-05
6.72111e-05
6.53362e-05
5.98617e-05
5.96986e-05
6.09219e-05
0.000106446
0.000237359
0.000169924
0.000164714
8.54291e-05
6.78013e-05
6.7876e-05
5.91857e-05
6.11733e-05
6.10909e-05
9.98901e-05
0.000226967
0.000149522
0.000169876
9.81563e-05
7.15261e-05
6.81524e-05
6.04164e-05
6.12706e-05
6.28355e-05
9.45409e-05
0.000215876
0.000126753
0.000176792
0.000120298
7.81559e-05
7.16408e-05
6.2409e-05
6.34817e-05
6.46613e-05
8.99624e-05
0.000208108
0.000101785
0.000192929
0.000142379
8.99378e-05
7.67675e-05
6.66952e-05
6.65093e-05
6.79534e-05
9.01115e-05
0.000197931
7.33683e-05
0.000208703
0.000177434
0.000113223
8.85579e-05
7.42011e-05
7.23596e-05
7.40442e-05
9.00024e-05
0.000191821
6.06105e-05
0.000243702
0.000221299
0.000148593
0.000107782
9.01953e-05
8.48132e-05
8.55199e-05
0.0001074
0.000183023
6.41592e-05
0.000267298
0.000287899
0.000229788
0.000147816
0.000112886
0.000103723
0.000105172
0.000140267
0.00017913
0.113405
0.0168115
0.0146465
0.0146412
0.0146415
0.0146417
0.0146413
0.0146466
0.0168044
0.113309
0.0394937
0.00083342
0.000326556
0.000323158
0.000322791
0.000323181
0.000322696
0.000327327
0.000833011
0.0392932
0.0167717
0.000445897
3.1063e-06
4.14169e-06
4.50847e-06
3.63939e-06
3.71962e-06
4.54059e-06
0.000444254
0.016697
0.00844979
0.000293848
1.12737e-08
1.80188e-08
3.07397e-08
1.86473e-08
1.44941e-08
7.49547e-08
0.000288451
0.00841715
0.00488004
0.000193058
1.05103e-08
1.28195e-08
7.02221e-09
7.65046e-09
2.02308e-08
2.20872e-08
0.000187649
0.00487542
0.00312655
0.000150974
3.51228e-08
2.55797e-07
1.23369e-08
1.0679e-08
9.66383e-08
2.72628e-08
0.000144498
0.00313426
0.00216526
0.000114589
5.21308e-08
6.85172e-07
7.83544e-09
8.5952e-09
2.81384e-07
2.72945e-08
0.00011504
0.00217505
0.00159066
8.69674e-05
4.91102e-08
5.76476e-07
1.63231e-08
1.36686e-08
2.9812e-07
4.85775e-08
6.94734e-05
0.0015996
0.00122481
0.000107828
5.34354e-08
4.3205e-07
4.03052e-08
3.33396e-08
8.29816e-07
5.22352e-08
9.19793e-05
0.0012312
0.000976702
7.93276e-05
4.65167e-08
2.50235e-07
8.39411e-08
7.77721e-08
7.27619e-07
9.32726e-08
6.88161e-05
0.000982402
0.000801717
6.82416e-05
4.27443e-08
2.90241e-07
1.71999e-07
1.52611e-07
5.92448e-07
8.47355e-08
5.58889e-05
0.000807201
0.000673482
7.16222e-05
5.60376e-08
4.12983e-07
4.1689e-07
2.29845e-07
5.83517e-07
1.09459e-07
5.12667e-05
0.000680246
0.00057619
7.6276e-05
1.13408e-07
8.42643e-07
8.3874e-07
9.03194e-07
7.34824e-07
1.30174e-07
5.83263e-05
0.000583444
0.000501817
8.09003e-05
1.5513e-07
5.89953e-07
9.80325e-07
8.44059e-07
8.92706e-07
1.71989e-07
6.0571e-05
0.000510304
0.000443006
8.22975e-05
3.07172e-07
1.43693e-06
1.52521e-06
1.21599e-06
1.03794e-06
2.10341e-07
6.06765e-05
0.00045245
0.000395203
8.18937e-05
8.7086e-07
1.704e-06
2.18085e-06
1.42348e-06
1.23475e-06
2.47334e-07
5.84069e-05
0.000406313
0.000355621
8.16982e-05
1.43877e-06
1.57522e-06
2.51937e-06
1.65583e-06
1.49472e-06
3.00265e-07
5.46541e-05
0.000367967
0.000322241
8.2659e-05
2.3753e-06
1.52027e-06
2.69571e-06
1.70327e-06
1.6286e-06
3.26987e-07
5.08949e-05
0.000337003
0.000293571
8.53313e-05
3.36376e-06
1.58535e-06
2.85508e-06
1.93355e-06
2.11573e-06
5.13e-07
4.75007e-05
0.000309972
0.00026842
8.92852e-05
4.43631e-06
1.95672e-06
2.95451e-06
1.90067e-06
2.24918e-06
4.11385e-07
4.44811e-05
0.00028852
0.000245971
9.34224e-05
6.72437e-06
2.22162e-06
3.01044e-06
2.37275e-06
2.18196e-06
1.13085e-06
4.15327e-05
0.000268294
0.000225152
9.74661e-05
9.43371e-06
3.11045e-06
3.25227e-06
2.5481e-06
2.21245e-06
1.31505e-06
3.89618e-05
0.000253148
0.000205693
0.000106498
1.40502e-05
3.34308e-06
3.40049e-06
2.83176e-06
2.41397e-06
1.12207e-06
3.60143e-05
0.000236886
0.00018668
0.000114393
1.95746e-05
4.33663e-06
3.67019e-06
3.11085e-06
2.59522e-06
1.44407e-06
3.31041e-05
0.000225885
0.000168158
0.000129606
2.77329e-05
5.95412e-06
4.42237e-06
3.1408e-06
2.97873e-06
2.10214e-06
2.98034e-05
0.000211336
0.000149274
0.000139338
4.19006e-05
9.24514e-06
5.07429e-06
3.47551e-06
3.37738e-06
2.755e-06
2.62941e-05
0.000202282
0.000129933
0.000149342
6.47618e-05
1.4903e-05
6.09424e-06
4.31164e-06
4.12922e-06
3.65968e-06
2.2944e-05
0.000187288
0.000109364
0.00016271
9.20169e-05
2.55415e-05
9.63093e-06
5.76128e-06
5.28951e-06
4.652e-06
1.97421e-05
0.000176377
8.9615e-05
0.000181611
0.000127054
4.39578e-05
1.56253e-05
8.33049e-06
6.91546e-06
6.61131e-06
1.75272e-05
0.000155833
7.65749e-05
0.000206181
0.000172466
8.29755e-05
3.31143e-05
1.56891e-05
1.08657e-05
9.14788e-06
2.06289e-05
0.000136126
0.113331
0.0168004
0.0146413
0.014636
0.0146364
0.0146363
0.0146361
0.0146414
0.0167934
0.113229
0.0393149
0.000824801
0.000323307
0.000318304
0.000317981
0.000317744
0.000318741
0.000322892
0.000823683
0.0391154
0.0166278
0.000432745
2.74039e-06
3.09274e-06
3.51004e-06
3.15473e-06
1.83359e-06
3.01434e-06
0.000434993
0.0165559
0.00835776
0.000286745
1.00952e-08
1.01069e-08
4.71366e-09
7.20957e-09
1.56779e-09
1.06675e-08
0.000277128
0.0083273
0.00482185
0.000194047
1.35492e-08
1.95403e-12
6.11507e-12
1.39116e-11
2.06203e-12
7.16075e-09
0.000175093
0.004817
0.00308871
0.00015772
7.11206e-09
2.53541e-12
7.80464e-13
7.93072e-14
3.44782e-13
7.339e-09
0.000148577
0.00309482
0.00213938
0.000109901
1.52173e-08
1.24207e-10
8.78015e-13
1.78409e-12
6.47969e-13
6.70974e-09
9.56843e-05
0.00214827
0.00157319
0.000109271
9.29025e-08
5.3385e-10
4.96416e-12
5.7275e-12
1.39668e-12
7.61983e-09
0.000115056
0.00158126
0.00121213
0.000124271
3.83573e-07
3.19561e-09
2.54303e-11
1.38759e-11
2.44859e-12
1.05549e-08
0.00010979
0.00121943
0.000966936
8.98518e-05
5.79212e-07
8.80868e-09
7.06851e-11
9.68746e-11
1.66396e-12
7.69878e-09
7.9375e-05
0.000974467
0.000794768
7.21738e-05
8.01493e-07
1.24159e-08
2.58458e-10
1.22297e-10
1.9331e-12
7.86163e-09
6.15981e-05
0.000802686
0.0006661
7.9867e-05
9.6611e-07
2.10711e-08
7.42765e-10
4.41737e-10
2.47213e-12
1.23407e-08
5.79942e-05
0.000677572
0.000570956
8.61164e-05
1.71614e-06
1.88456e-08
1.53166e-09
4.42863e-12
1.9182e-12
2.02288e-08
6.11327e-05
0.000581849
0.000497725
8.815e-05
2.28585e-06
3.8433e-08
2.46487e-09
5.49286e-12
1.46973e-12
1.40153e-08
6.14186e-05
0.000509595
0.000439492
9.03689e-05
2.74976e-06
4.32964e-08
2.75056e-09
1.1039e-11
3.43342e-12
1.586e-08
6.61022e-05
0.000452324
0.000392087
8.96705e-05
3.51936e-06
6.30196e-08
1.00496e-08
2.93954e-11
3.06177e-12
2.05136e-08
6.30899e-05
0.000406893
0.000352906
9.01667e-05
4.24166e-06
9.28754e-08
1.37889e-08
4.63431e-10
6.23323e-12
3.91032e-08
6.46291e-05
0.000369307
0.00031983
8.99226e-05
4.91941e-06
1.29588e-07
1.54566e-08
3.26737e-09
1.82243e-11
7.09026e-08
6.23869e-05
0.000339276
0.000291454
9.08052e-05
5.78614e-06
1.85409e-07
3.01706e-08
2.74253e-09
4.31638e-11
1.15298e-07
5.81116e-05
0.0003128
0.00026659
9.278e-05
7.05758e-06
2.91809e-07
2.95127e-08
3.13625e-09
1.59148e-10
1.47053e-07
5.39176e-05
0.000291994
0.000244357
9.62092e-05
8.74329e-06
4.32447e-07
5.75979e-08
7.5518e-09
4.06071e-10
2.54498e-07
4.90844e-05
0.000271882
0.000223941
9.98423e-05
1.13063e-05
7.40907e-07
6.89133e-08
9.93389e-09
8.47844e-10
2.63752e-07
4.50594e-05
0.000257132
0.000204754
0.000106411
1.41564e-05
1.08174e-06
1.2977e-07
1.79076e-08
2.23241e-09
3.21852e-07
4.01376e-05
0.000240529
0.000186352
0.000112985
1.89238e-05
1.94207e-06
1.91382e-07
3.14161e-08
1.17651e-08
3.25616e-07
3.59322e-05
0.000229775
0.000168251
0.000124077
2.37019e-05
2.84926e-06
4.25855e-07
4.70361e-08
1.19832e-08
3.22094e-07
3.07051e-05
0.000214393
0.000150427
0.000134219
3.54046e-05
5.05022e-06
6.60287e-07
1.2577e-07
4.53047e-08
3.05087e-07
2.61185e-05
0.00020561
0.000132209
0.000138856
4.95734e-05
8.06383e-06
1.50582e-06
2.24834e-07
5.30787e-08
2.76494e-07
2.08332e-05
0.000188909
0.000113882
0.000148172
7.33528e-05
1.55612e-05
2.62107e-06
6.29664e-07
1.89092e-07
2.55989e-07
1.63021e-05
0.000178224
9.52153e-05
0.000156991
9.34809e-05
2.45875e-05
5.73311e-06
1.12035e-06
2.79868e-07
3.06642e-07
1.17572e-05
0.000153371
7.75386e-05
0.000170895
0.000126872
4.23534e-05
1.0827e-05
3.02577e-06
9.44869e-07
4.72197e-07
9.60062e-06
0.000139206
0.113313
0.0168021
0.0146415
0.0146363
0.0146365
0.0146365
0.0146363
0.0146416
0.0167951
0.11321
0.0392595
0.000824578
0.000322869
0.000317735
0.000317046
0.000317449
0.000317726
0.000322692
0.000823304
0.0390602
0.0165739
0.000433351
4.24038e-06
3.18009e-06
3.12018e-06
3.41433e-06
3.13982e-06
4.57556e-06
0.000436611
0.0165028
0.00831722
0.000287804
3.0029e-08
4.00071e-09
9.08234e-09
1.03045e-08
7.91349e-09
1.95583e-08
0.000279379
0.00828846
0.00479253
0.000200642
7.4643e-09
3.72897e-12
1.79406e-12
1.43278e-11
1.949e-11
4.82162e-09
0.000181822
0.00478838
0.00306608
0.000154603
1.4747e-08
3.41873e-13
1e-15
1e-15
7.71672e-14
2.65767e-08
0.000143426
0.00307271
0.00212262
0.000125784
9.48316e-09
2.89088e-12
1e-15
1e-15
5.52166e-13
8.66186e-08
0.000116785
0.00213095
0.00155908
7.71837e-05
1.41901e-08
6.89424e-12
1e-15
1e-15
8.83988e-13
7.54789e-08
7.21272e-05
0.00156744
0.00120093
0.000107921
1.28964e-07
2.27184e-10
4.58611e-15
1e-15
1.8659e-12
1.95273e-07
9.60725e-05
0.00120799
0.000958224
8.88075e-05
2.35358e-07
1.63231e-09
4.87369e-12
8.45846e-15
9.0709e-13
1.58724e-07
7.348e-05
0.000965822
0.000787727
7.26592e-05
6.83206e-07
6.56169e-09
6.16749e-12
3.24256e-15
1.18348e-12
1.63894e-07
5.64224e-05
0.000795473
0.000659899
8.31355e-05
1.01488e-06
8.75826e-09
2.00391e-11
2.1042e-13
1.20113e-11
3.63401e-07
5.73076e-05
0.000671526
0.000566227
8.55294e-05
1.83578e-06
1.34113e-08
5.52501e-11
8.51939e-15
4.72728e-11
5.19627e-07
6.0495e-05
0.000577281
0.000493718
9.15993e-05
2.97874e-06
2.89297e-08
4.13616e-11
7.10319e-14
2.05734e-10
6.24511e-07
6.03777e-05
0.00050579
0.000436035
9.28454e-05
4.03601e-06
5.74581e-08
7.02805e-10
2.41891e-13
1.5403e-10
6.91688e-07
6.0853e-05
0.000449219
0.000389341
9.30376e-05
4.63686e-06
8.71863e-08
1.48599e-09
3.83189e-12
2.03367e-10
7.36456e-07
5.95475e-05
0.000404176
0.000350642
9.09366e-05
5.39318e-06
1.45663e-07
2.66896e-09
1.62302e-11
4.38286e-10
7.50116e-07
5.60108e-05
0.000366665
0.000318027
9.14574e-05
6.12313e-06
1.98908e-07
5.36527e-09
7.46555e-11
4.47803e-10
7.09895e-07
5.23722e-05
0.000336435
0.000290029
9.13888e-05
7.26951e-06
2.79283e-07
9.30365e-09
2.50373e-10
8.77172e-10
7.44622e-07
4.87204e-05
0.000309903
0.000265483
9.3812e-05
9.13093e-06
3.7789e-07
1.92399e-08
4.18492e-10
7.51065e-10
7.19478e-07
4.56238e-05
0.000288919
0.000243505
9.76557e-05
1.03757e-05
5.53695e-07
1.89562e-08
8.08352e-10
1.64562e-09
6.79961e-07
4.22207e-05
0.000268911
0.000223356
0.000101383
1.46552e-05
8.50752e-07
7.34055e-08
3.95011e-09
1.43915e-09
6.28473e-07
3.93267e-05
0.000254083
0.000204512
0.000109348
1.53911e-05
1.14622e-06
7.92144e-08
6.59903e-09
1.47747e-09
6.15645e-07
3.53987e-05
0.000237677
0.000186136
0.000111437
1.75502e-05
1.64299e-06
2.147e-07
9.4757e-09
2.82797e-09
4.88845e-07
3.19258e-05
0.000226809
0.000168046
0.000120422
2.14901e-05
2.51697e-06
2.4745e-07
3.89376e-08
4.19782e-09
4.81204e-07
2.74441e-05
0.000211696
0.000150062
0.000130018
2.9939e-05
3.81908e-06
6.04748e-07
5.08495e-08
9.82037e-09
4.04908e-07
2.33032e-05
0.000202594
0.00013176
0.000136687
4.60324e-05
7.03297e-06
8.69969e-07
1.719e-07
1.69561e-08
3.10311e-07
1.85986e-05
0.000185965
0.000112869
0.000144828
6.92099e-05
1.34151e-05
2.36716e-06
2.82168e-07
1.13024e-07
2.59913e-07
1.45698e-05
0.000175598
9.37978e-05
0.000156796
9.17718e-05
2.28385e-05
4.38234e-06
9.50063e-07
3.09299e-07
2.5697e-07
1.01767e-05
0.000150685
7.42457e-05
0.000167731
0.000124476
3.97082e-05
1.03326e-05
2.20492e-06
5.30808e-07
2.74366e-07
8.07858e-06
0.000133516
0.113313
0.0168021
0.0146417
0.0146364
0.0146366
0.0146366
0.0146363
0.0146414
0.0167951
0.11321
0.0392596
0.000824699
0.000322237
0.000318262
0.000317393
0.000317588
0.000317759
0.000322178
0.000823384
0.0390605
0.0165741
0.000432445
3.00909e-06
3.66195e-06
3.37434e-06
3.56443e-06
3.15258e-06
3.68268e-06
0.000436292
0.0165033
0.00831769
0.000290993
9.06175e-09
1.43465e-08
1.40653e-08
1.55491e-08
8.83274e-09
1.5956e-08
0.00027915
0.00828929
0.00479313
0.000205527
6.56612e-09
1.53644e-11
2.81072e-11
1.63528e-11
1.71386e-12
1.9723e-08
0.000184833
0.00478925
0.00306607
0.000148722
9.09523e-09
6.50405e-13
2.14215e-15
1e-15
7.33209e-14
2.90279e-07
0.000144851
0.00307319
0.00212273
0.000143355
1.03104e-08
1.76259e-12
1e-15
1e-15
1.11179e-12
4.36636e-07
0.000117708
0.00213105
0.00156011
0.000129959
9.69396e-09
3.19907e-12
4.38871e-15
4.67044e-14
1.93622e-11
3.28311e-07
7.22433e-05
0.00156753
0.00120118
0.000120584
9.90116e-09
9.72808e-12
1.77844e-15
4.9636e-14
1.57976e-10
3.64237e-07
9.63492e-05
0.00120789
0.000958269
8.93652e-05
1.23478e-08
1.07192e-11
1.71652e-13
2.84768e-14
3.98141e-10
4.30033e-07
8.12917e-05
0.000965809
0.000787322
7.45852e-05
1.40345e-08
1.13791e-11
1.1421e-12
8.74712e-13
4.53295e-10
5.07552e-07
6.46328e-05
0.000795674
0.000660891
8.06595e-05
2.19587e-08
1.75605e-11
1.22629e-12
3.73157e-12
1.09266e-09
6.00556e-07
6.29157e-05
0.000670979
0.000566301
8.67615e-05
3.14797e-08
1.78895e-11
6.59816e-12
2.94781e-12
1.22005e-09
8.12043e-07
6.65353e-05
0.000577475
0.000493677
8.7401e-05
4.80877e-08
4.28432e-11
1.1853e-11
5.07553e-12
1.90665e-09
1.02567e-06
6.48976e-05
0.000506036
0.000436067
8.92765e-05
1.07384e-07
7.46808e-11
1.11166e-11
9.86245e-12
2.47173e-09
1.06966e-06
6.41686e-05
0.000449545
0.000389281
8.91158e-05
3.20396e-07
5.09419e-10
1.41747e-11
2.06586e-11
2.59905e-09
1.08508e-06
6.25723e-05
0.000404408
0.000350593
8.8721e-05
9.98246e-07
4.8519e-09
5.14228e-11
2.95635e-11
3.17359e-09
1.14228e-06
6.21359e-05
0.000366867
0.000317969
8.88291e-05
1.53774e-06
2.18633e-08
2.92261e-10
2.77808e-11
3.84004e-09
1.25611e-06
6.07254e-05
0.000336715
0.000289928
8.98108e-05
2.45801e-06
4.55183e-08
7.84762e-10
1.42394e-10
4.84322e-09
1.34473e-06
5.81732e-05
0.000310351
0.000265408
9.20323e-05
3.83616e-06
6.55584e-08
2.52016e-09
3.01151e-09
5.29441e-09
1.34353e-06
5.5581e-05
0.000289648
0.000243416
9.55926e-05
5.28135e-06
2.02124e-07
2.14599e-09
3.49407e-10
6.04365e-09
1.34013e-06
5.16755e-05
0.000269936
0.000223288
0.000100483
8.0544e-06
3.55594e-07
1.84005e-08
1.30897e-10
6.27145e-09
1.28027e-06
4.76172e-05
0.000255333
0.000204387
0.000106035
1.04767e-05
6.27418e-07
2.10946e-08
2.23344e-09
5.83542e-09
1.1454e-06
4.2531e-05
0.000239161
0.000186017
0.000109218
1.53264e-05
1.24218e-06
9.28616e-08
1.85868e-09
6.65585e-09
9.71829e-07
3.75848e-05
0.000228454
0.000167961
0.000119879
1.99682e-05
2.10731e-06
1.58479e-07
1.86051e-08
5.488e-09
7.9167e-07
3.1816e-05
0.000213313
0.00014995
0.000129546
2.9172e-05
3.63057e-06
4.86978e-07
3.32485e-08
1.25899e-08
5.94667e-07
2.67115e-05
0.000204358
0.000131617
0.000136228
4.56988e-05
6.81693e-06
7.98087e-07
1.45681e-07
1.09699e-08
4.42551e-07
2.09751e-05
0.000188145
0.000112681
0.000144285
6.89888e-05
1.35724e-05
2.32933e-06
2.75209e-07
7.92553e-08
2.78318e-07
1.63363e-05
0.000175945
9.35794e-05
0.00015637
9.17795e-05
2.28612e-05
4.37438e-06
9.95265e-07
1.03674e-07
2.43169e-07
1.10442e-05
0.000153577
7.40448e-05
0.000167712
0.000124546
4.05355e-05
1.04835e-05
2.33196e-06
6.15207e-07
2.96086e-07
9.36985e-06
0.000131018
0.113331
0.0168004
0.0146413
0.0146361
0.0146363
0.0146365
0.014636
0.0146412
0.0167934
0.113229
0.0393145
0.000824837
0.000323196
0.000318921
0.000317897
0.000317817
0.000318391
0.000323061
0.000823803
0.0391159
0.0166287
0.00043271
4.28724e-06
3.64304e-06
3.35621e-06
1.95557e-06
3.12656e-06
3.82295e-06
0.000434186
0.0165578
0.00835968
0.000289583
3.49824e-08
1.59733e-08
7.51952e-09
1.63292e-09
3.88817e-09
3.27957e-08
0.000281346
0.00833095
0.00482414
0.000204116
1.02741e-08
1.85565e-11
1.34254e-11
7.92888e-13
5.67908e-12
1.07451e-08
0.000184156
0.00482051
0.00308897
0.000147465
1.37291e-08
3.94346e-13
5.6882e-11
3.34956e-15
2.15679e-12
5.29477e-09
0.0001527
0.00309638
0.00214008
0.000142988
1.10818e-08
3.35333e-12
2.15489e-10
5.10833e-13
2.87487e-11
5.46821e-09
9.92425e-05
0.00214839
0.00157356
0.000129622
1.74646e-08
7.42589e-12
1.16206e-09
2.39672e-10
2.02145e-11
1.17742e-08
0.000115548
0.00158114
0.0012119
0.000121095
9.32667e-08
1.2681e-10
9.49304e-10
1.70585e-09
4.35989e-10
3.32876e-08
9.83642e-05
0.00121888
0.000967055
8.99332e-05
1.93566e-07
5.08737e-10
2.06653e-09
1.37997e-10
1.65268e-09
8.52941e-08
9.2482e-05
0.000974903
0.000794516
7.77817e-05
7.11808e-07
4.22863e-10
3.38394e-09
1.30653e-09
2.87545e-09
1.69913e-07
6.93085e-05
0.000803205
0.000667068
7.65098e-05
8.69086e-07
4.27967e-09
4.21331e-09
3.34134e-09
1.19983e-08
2.47071e-07
5.88576e-05
0.000677453
0.000571308
8.34019e-05
1.36691e-06
7.71076e-09
9.23137e-09
3.97898e-09
1.83094e-08
4.333e-07
6.05317e-05
0.000583035
0.000497855
8.50719e-05
1.97141e-06
1.50148e-08
1.07895e-08
4.38336e-09
2.88696e-08
5.90839e-07
6.22197e-05
0.000510907
0.000439233
8.8108e-05
2.91115e-06
3.14518e-08
1.0295e-08
6.14437e-09
3.69181e-08
6.7248e-07
6.15273e-05
0.000453613
0.000391831
8.95117e-05
3.59809e-06
5.34866e-08
1.55003e-08
8.78597e-09
4.22494e-08
8.19237e-07
6.03435e-05
0.000408063
0.000352642
8.99532e-05
4.27942e-06
8.18188e-08
1.6123e-08
1.08547e-08
4.41142e-08
1.01889e-06
6.19162e-05
0.000370222
0.000319644
9.16154e-05
5.46145e-06
1.46429e-07
1.55452e-08
1.62121e-08
4.69901e-08
1.16481e-06
5.6541e-05
0.000339676
0.000291282
9.42941e-05
6.38796e-06
2.00242e-07
2.20717e-08
1.92671e-08
4.64306e-08
1.26698e-06
5.79424e-05
0.000313218
0.00026653
9.87949e-05
8.35234e-06
3.501e-07
2.34815e-08
2.74133e-08
5.69842e-08
1.29141e-06
5.66242e-05
0.000292329
0.00024432
0.000100206
8.96696e-06
4.7137e-07
3.8603e-08
3.22333e-08
4.94697e-08
1.25079e-06
5.3082e-05
0.000272563
0.000224071
0.000107572
1.08116e-05
7.17439e-07
4.64115e-08
3.96391e-08
6.45025e-08
1.1491e-06
4.86496e-05
0.00025783
0.000204808
0.000108112
1.28047e-05
1.01431e-06
1.19591e-07
4.7137e-08
7.03205e-08
1.01657e-06
4.29e-05
0.00024137
0.000186256
0.000111367
1.69495e-05
1.61604e-06
1.57611e-07
6.89055e-08
7.79889e-08
8.69524e-07
3.80184e-05
0.000230673
0.000167977
0.000121092
2.13561e-05
2.44317e-06
3.81207e-07
9.36893e-08
7.32301e-08
7.07096e-07
3.153e-05
0.000215047
0.000150023
0.000131691
3.21152e-05
4.26116e-06
5.26109e-07
1.73207e-07
1.27027e-07
5.64206e-07
2.70979e-05
0.000206263
0.000131751
0.000137156
4.72485e-05
7.26087e-06
1.32163e-06
2.49805e-07
1.37595e-07
4.72297e-07
2.05947e-05
0.000189729
0.000113334
0.000147024
7.19148e-05
1.48161e-05
2.28203e-06
5.97754e-07
3.01296e-07
4.43199e-07
1.68575e-05
0.000177378
9.47645e-05
0.000157526
9.37418e-05
2.41749e-05
5.35843e-06
1.004e-06
3.90295e-07
4.43166e-07
1.11144e-05
0.000155203
7.70265e-05
0.000170884
0.000127842
4.28353e-05
1.05609e-05
2.91658e-06
9.76502e-07
6.86772e-07
9.47651e-06
0.000132768
0.113408
0.0168114
0.0146465
0.0146413
0.0146415
0.0146415
0.0146413
0.0146465
0.0168045
0.113308
0.0394875
0.000833162
0.000327348
0.000323467
0.000322345
0.000322696
0.000323228
0.000327499
0.000832274
0.0392899
0.0167738
0.00044719
4.60829e-06
4.46212e-06
3.87731e-06
4.3259e-06
4.52121e-06
4.83439e-06
0.000447608
0.0167
0.00845646
0.000298414
4.0157e-08
2.94099e-08
1.4156e-08
1.79462e-08
2.05406e-08
4.72374e-08
0.00029161
0.00842604
0.00488717
0.000205001
2.07493e-08
7.61122e-09
1.66161e-08
7.83893e-09
6.04383e-09
2.17668e-08
0.000194163
0.00488386
0.0031303
0.000155235
2.14192e-08
4.44543e-09
2.68276e-07
1.05781e-07
5.50489e-08
1.57611e-08
0.000147612
0.0031384
0.00216652
0.000124174
2.03841e-08
6.54589e-09
3.27567e-07
4.91609e-07
2.98268e-07
2.10746e-08
0.000117766
0.00217547
0.00159067
7.52592e-05
1.70068e-08
1.08357e-08
4.82977e-07
4.06179e-07
2.93606e-07
1.90162e-08
7.0632e-05
0.00159905
0.00122455
0.000105458
1.89915e-08
2.30575e-08
4.51155e-07
4.68811e-07
6.60018e-07
4.20198e-08
9.63126e-05
0.00123072
0.000976822
8.05135e-05
2.21912e-08
5.41158e-08
6.13164e-07
4.3298e-07
4.95433e-07
3.24935e-08
7.20482e-05
0.000981963
0.000802099
6.76048e-05
3.14203e-08
1.09655e-07
8.17343e-07
6.71884e-07
6.76444e-07
4.06814e-08
6.3765e-05
0.000807705
0.000673431
6.92925e-05
7.47139e-08
1.84584e-07
1.16512e-06
9.34083e-07
1.77653e-06
1.32997e-07
7.42143e-05
0.000677969
0.000576478
7.68327e-05
2.06674e-07
3.55198e-07
1.5016e-06
1.32031e-06
2.10654e-06
2.44268e-07
7.70677e-05
0.000582829
0.000502278
8.11339e-05
6.3549e-07
4.48654e-07
1.63109e-06
1.57242e-06
2.45512e-06
2.24508e-07
7.64446e-05
0.000510416
0.000443391
8.28717e-05
8.46443e-07
7.04243e-07
1.61526e-06
1.87578e-06
2.81406e-06
2.8863e-07
7.67484e-05
0.000452879
0.000395491
8.35558e-05
1.71117e-06
9.38413e-07
1.9108e-06
1.95939e-06
3.06133e-06
4.79311e-07
7.70711e-05
0.000407069
0.000355823
8.34756e-05
2.03251e-06
1.31592e-06
1.92022e-06
2.21311e-06
3.26787e-06
7.04504e-07
7.34194e-05
0.000369074
0.000322368
8.40472e-05
2.71628e-06
1.70793e-06
1.97571e-06
2.55454e-06
3.36706e-06
8.26362e-07
6.86658e-05
0.000338396
0.000293663
8.60259e-05
4.12007e-06
2.11263e-06
2.03139e-06
2.82713e-06
3.56744e-06
1.18465e-06
6.31931e-05
0.000311637
0.000268464
8.91394e-05
5.36995e-06
2.61675e-06
1.9781e-06
3.0815e-06
3.61524e-06
1.41599e-06
5.82067e-05
0.000290351
0.000245943
9.32905e-05
7.50864e-06
3.06129e-06
2.08347e-06
3.18831e-06
3.5697e-06
1.79207e-06
5.29105e-05
0.000270287
0.000225129
9.70348e-05
9.96593e-06
3.74612e-06
2.4167e-06
3.4357e-06
3.94984e-06
2.03761e-06
4.81374e-05
0.000255144
0.000205613
0.000105511
1.35983e-05
4.73696e-06
2.75948e-06
3.55758e-06
4.06302e-06
2.40842e-06
4.31631e-05
0.0002388
0.000186563
0.000112512
1.82307e-05
5.83939e-06
3.35133e-06
3.76577e-06
4.0938e-06
2.65694e-06
3.85517e-05
0.000227744
0.000167874
0.000127057
2.44874e-05
8.46708e-06
4.17435e-06
4.34196e-06
4.15512e-06
3.22184e-06
3.38223e-05
0.000212867
0.000148896
0.000137481
3.76436e-05
9.61068e-06
4.95572e-06
4.81664e-06
4.64937e-06
3.65974e-06
2.90525e-05
0.00020373
0.000129323
0.000146958
5.8152e-05
1.39846e-05
6.75823e-06
5.83612e-06
5.28662e-06
4.59488e-06
2.53441e-05
0.000188455
0.00010862
0.000160738
8.56788e-05
2.26287e-05
8.74506e-06
6.66095e-06
6.39808e-06
5.7312e-06
2.07812e-05
0.000178058
8.85941e-05
0.000178628
0.000119951
3.92303e-05
1.49429e-05
8.68815e-06
7.84389e-06
7.7193e-06
1.95344e-05
0.000155114
7.54586e-05
0.000203031
0.000166232
7.60199e-05
2.83898e-05
1.47966e-05
1.0818e-05
1.02342e-05
2.15406e-05
0.000141112
0.113766
0.0191381
0.0168049
0.016794
0.0167957
0.0167957
0.016794
0.016805
0.0191318
0.113672
0.0397697
0.00150772
0.000833735
0.00082435
0.000823762
0.000824116
0.000824526
0.000833178
0.00150473
0.0395855
0.0169523
0.000855092
0.000442471
0.000434012
0.000437314
0.000434335
0.000432825
0.000444412
0.000866241
0.0168626
0.00854786
0.000964059
0.000295555
0.000282115
0.000281709
0.000287491
0.000287534
0.000300145
0.000922434
0.00850724
0.00492589
0.000750752
0.000196586
0.000184314
0.000184476
0.000193918
0.000198657
0.000204359
0.000734756
0.00492196
0.00314369
0.00054725
0.000149849
0.00015392
0.000149981
0.000150843
0.000145842
0.000165831
0.000549382
0.00315655
0.00216193
0.00032445
0.00011939
0.000100859
0.000110888
0.000122602
0.000137081
0.000101032
0.000320288
0.00217948
0.00158285
0.000396033
7.16597e-05
0.000117288
9.45737e-05
7.50089e-05
0.000123317
0.0001236
0.000385668
0.00159381
0.00121012
0.000318577
9.53108e-05
0.000109273
0.000110956
0.000101439
0.000113931
0.000124448
0.000341423
0.00121979
0.000960681
0.00025014
8.12223e-05