/*--------------------------------*- C++ -*----------------------------------*\
| =========                 |                                                 |
| \\      /  F ield         | OpenFOAM: The Open Source CFD Toolbox           |
|  \\    /   O peration     | Version:  4.1                                   |
|   \\  /    A nd           | Web:      www.OpenFOAM.org                      |
|    \\/     M anipulation  |                                                 |
\*---------------------------------------------------------------------------*/
FoamFile
{
    version     2.0;
    format      ascii;
    class       volScalarField;
    location    "1300";
    object      nut;
}
// * * * * * * * * * * * * * * * * * * * * * * * * * * * * * * * * * * * * * //

dimensions      [0 2 -1 0 0 0 0];

internalField   nonuniform List<scalar> 
12000
(
0.00382161
0.00373261
0.00372598
0.00372472
0.00372439
0.00372436
0.00372465
0.00372625
0.00373693
0.00382639
0.00226046
0.00223197
0.00223328
0.00222903
0.00222758
0.00222759
0.00222893
0.00223234
0.00222924
0.00225583
0.00146274
0.00145501
0.00145234
0.00144811
0.00144609
0.00144619
0.00144831
0.00145369
0.00145274
0.00145966
0.00103252
0.00102551
0.0010242
0.00102097
0.00101927
0.00101942
0.00102218
0.0010277
0.00102369
0.00102779
0.000786031
0.000782094
0.000779266
0.000776558
0.000774874
0.000775188
0.000778028
0.00078359
0.000776477
0.000779254
0.000627383
0.000629933
0.000626085
0.00062334
0.000621724
0.000621701
0.000624396
0.000630672
0.000626295
0.000623567
0.000516966
0.00052348
0.000522676
0.000520008
0.000517943
0.000518341
0.000520608
0.000524856
0.000521399
0.00051642
0.000438602
0.000449398
0.000448194
0.000445835
0.000444325
0.000444678
0.000446704
0.000450127
0.00044866
0.000439379
0.000381205
0.000392251
0.000394041
0.000392037
0.000390651
0.000390663
0.000392383
0.000394951
0.000391932
0.000382567
0.000338371
0.000349379
0.000351702
0.000350266
0.000348859
0.000348825
0.000350475
0.000352487
0.000349486
0.000339899
0.000304999
0.000312483
0.000318532
0.000317768
0.000316599
0.000316455
0.000317588
0.000319015
0.000312512
0.000306779
0.000278671
0.000285621
0.000291413
0.000290167
0.000288665
0.000289438
0.000291704
0.000292488
0.000286348
0.000280788
0.000257236
0.000265053
0.000269605
0.00026843
0.000267169
0.000268401
0.000269589
0.000270445
0.000266157
0.000259929
0.000239306
0.000248135
0.000252441
0.000251664
0.000250897
0.000251211
0.000252085
0.000253251
0.000249625
0.00024277
0.00022397
0.00023345
0.000237681
0.000237116
0.000236467
0.000236849
0.000237627
0.000238966
0.000235466
0.000228399
0.000210645
0.000220602
0.000224999
0.000224646
0.000224153
0.000224597
0.000225549
0.00022667
0.000223152
0.000216175
0.000198882
0.000209211
0.000214012
0.000213814
0.000213459
0.000213895
0.000214799
0.000216
0.000212424
0.000205728
0.000188341
0.000199119
0.000204293
0.000204335
0.000204205
0.000204662
0.000205548
0.00020673
0.00020307
0.000196699
0.000178733
0.000190121
0.000195742
0.000196026
0.000196055
0.000196526
0.000197457
0.000198792
0.000195147
0.000189035
0.000169761
0.000182071
0.000188029
0.00018862
0.000188949
0.000189582
0.000190541
0.000191891
0.000188357
0.000182403
0.000161097
0.000174397
0.000181008
0.000182056
0.000182579
0.000183321
0.000184379
0.000185977
0.000182797
0.000176973
0.000152395
0.000167232
0.000174526
0.000176037
0.000176919
0.000178013
0.000179177
0.000180816
0.000178009
0.000172263
0.000143178
0.000159691
0.000168364
0.000170547
0.000171623
0.000172916
0.000174358
0.000176468
0.000174264
0.000168695
0.000132709
0.000151645
0.000162037
0.000165213
0.000166955
0.000168742
0.000170377
0.000172584
0.000170968
0.000165687
0.000119932
0.00014193
0.000155494
0.000160022
0.000162056
0.000164135
0.000166405
0.000169486
0.000168656
0.000163752
0.00010167
0.000129951
0.000147543
0.000154458
0.000157745
0.000160592
0.000162993
0.000166469
0.000166417
0.000162768
7.48175e-05
0.00011268
0.000138042
0.00014765
0.000152124
0.00015567
0.000159422
0.000164233
0.000165353
0.00016127
6.31251e-05
9.2063e-05
0.000122752
0.000139311
0.000146774
0.000151785
0.000155034
0.000161687
0.000163948
0.00016568
7.48002e-05
8.9623e-05
0.000101779
0.000117803
0.000134248
0.000144296
0.000151953
0.000156877
0.000165237
0.000160439
9.47515e-05
0.000107118
0.000111921
0.000112283
0.000114956
0.000126124
0.000135605
0.000155045
0.000159738
0.00017192
0.00373263
3.9259e-05
2.96174e-05
2.9596e-05
2.96068e-05
2.96069e-05
2.95959e-05
2.96179e-05
3.9183e-05
0.00372816
0.00223196
3.34802e-06
1.82422e-06
1.82445e-06
1.82328e-06
1.82405e-06
1.8223e-06
1.83621e-06
3.34057e-06
0.00220082
0.00145501
1.87717e-05
2.00913e-05
1.93431e-05
1.94739e-05
1.94215e-05
1.94186e-05
1.95963e-05
1.90068e-05
0.00143086
0.0010252
0.000198465
3.87744e-05
3.68721e-05
3.67741e-05
3.71364e-05
3.7143e-05
4.12133e-05
0.00019242
0.00100753
0.000781681
0.000363361
3.70599e-05
3.97602e-05
3.86307e-05
4.21341e-05
4.0621e-05
4.68233e-05
0.000342549
0.000773948
0.00062952
0.000400909
4.72916e-05
5.04941e-05
5.46731e-05
4.82827e-05
4.67672e-05
6.67952e-05
0.000388685
0.000632452
0.000523028
0.000239231
6.28472e-05
6.74164e-05
5.52143e-05
8.88069e-05
8.71075e-05
4.9839e-05
0.000233627
0.000532492
0.000448943
0.00049499
4.30457e-05
4.59236e-05
8.785e-05
0.000127027
0.000125691
0.000137021
0.000571186
0.000457591
0.000391709
0.000301871
0.000129471
0.000138259
0.000178423
0.000193993
0.000183078
0.00022259
0.000285942
0.000399151
0.000348758
0.000324597
0.000113752
0.000123379
0.000142784
8.90094e-05
9.43711e-05
0.000111544
0.000236626
0.000354289
0.000311734
0.000181465
5.16283e-05
6.3339e-05
6.71215e-05
5.23662e-05
4.51781e-05
4.88262e-05
0.00012171
0.000315589
0.000284727
0.000166345
3.83273e-05
4.81852e-05
5.48489e-05
5.03259e-05
4.71815e-05
6.07728e-05
0.000149284
0.000287871
0.000263967
0.000164725
5.6092e-05
6.11003e-05
6.32585e-05
5.9359e-05
3.42175e-05
5.04293e-05
0.000144686
0.000266986
0.000246838
0.000156651
4.93188e-05
5.37213e-05
5.38096e-05
5.43161e-05
4.94152e-05
5.4492e-05
0.000151049
0.000250311
0.000231924
0.000135245
6.67386e-05
7.35693e-05
7.68495e-05
7.37412e-05
4.63501e-05
6.53123e-05
0.000128422
0.000236268
0.000218785
0.000129294
5.93646e-05
6.8353e-05
7.38754e-05
6.45487e-05
6.06523e-05
6.74371e-05
0.000119312
0.000224184
0.000207052
0.000127022
5.64525e-05
6.59006e-05
7.42413e-05
5.94628e-05
5.44671e-05
5.9811e-05
0.000115409
0.000213459
0.000196548
0.000129781
5.56883e-05
6.52904e-05
7.25777e-05
5.61915e-05
5.38761e-05
5.78644e-05
0.000115404
0.00020412
0.000187097
0.000132844
6.06121e-05
6.46169e-05
7.16612e-05
5.6155e-05
5.47864e-05
5.7595e-05
0.000116494
0.00019585
0.000178527
0.000140932
6.46823e-05
6.61883e-05
7.056e-05
5.45215e-05
5.60559e-05
5.93366e-05
0.000117609
0.000188959
0.000170347
0.000146462
6.84841e-05
6.63578e-05
6.773e-05
5.83123e-05
5.783e-05
6.05837e-05
0.000116724
0.000182845
0.000162657
0.000155526
7.34404e-05
6.91946e-05
6.97493e-05
6.14564e-05
6.00155e-05
6.29133e-05
0.00011492
0.000177857
0.000154803
0.000159336
8.08168e-05
7.36178e-05
7.00466e-05
6.52782e-05
6.17465e-05
6.60385e-05
0.000111578
0.000173165
0.000146517
0.000161425
9.51187e-05
7.42842e-05
7.86571e-05
6.60218e-05
6.71207e-05
6.72264e-05
0.000108125
0.000169497
0.000137404
0.000168004
0.000110528
8.14642e-05
7.6222e-05
6.62357e-05
6.7151e-05
7.15247e-05
0.000103375
0.000165352
0.000126361
0.000176352
0.000138423
9.05126e-05
8.28937e-05
6.94552e-05
7.02009e-05
7.05245e-05
0.000101901
0.000162449
0.000113177
0.000191165
0.000154697
0.000104355
8.72692e-05
7.22332e-05
7.37303e-05
7.60208e-05
9.67295e-05
0.000158588
9.55515e-05
0.000204207
0.000192402
0.00013136
0.000102983
8.26796e-05
7.81632e-05
7.58685e-05
9.78106e-05
0.000155165
8.68845e-05
0.000225388
0.000218415
0.000162698
0.000123042
9.9417e-05
9.12931e-05
9.13143e-05
9.15006e-05
0.000158846
8.94487e-05
0.000246085
0.000259662
0.000233269
0.000154629
0.000122228
0.000106842
0.000103414
0.000114437
0.000134925
0.00372598
2.96203e-05
2.22866e-05
2.22876e-05
2.22922e-05
2.22915e-05
2.22877e-05
2.22879e-05
2.95807e-05
0.00371541
0.00223336
1.83654e-06
5.91401e-07
5.60317e-07
5.64696e-07
5.9523e-07
5.56392e-07
5.89116e-07
1.84104e-06
0.00219578
0.00145271
1.98419e-05
2.35577e-09
5.59243e-09
6.9239e-09
4.18978e-09
4.11807e-09
6.69812e-09
1.99575e-05
0.00142909
0.00102397
3.82399e-05
1.62008e-13
4.64045e-13
4.37402e-13
1.2668e-13
6.08886e-13
4.44831e-12
3.6505e-05
0.0010044
0.000778809
3.81605e-05
3.53255e-13
1.65926e-11
7.16309e-14
4.34472e-14
5.72867e-11
8.80966e-13
3.53546e-05
0.000769014
0.000625713
5.06272e-05
8.0927e-12
7.92921e-08
4.15198e-13
2.34808e-13
3.03404e-09
3.03071e-12
4.542e-05
0.000625035
0.000522147
5.93859e-05
5.04025e-11
9.90254e-07
9.57606e-13
9.39674e-13
9.1837e-08
6.75986e-12
5.94091e-05
0.000526124
0.00044792
6.23046e-05
3.82859e-11
7.67356e-07
1.4956e-11
9.06946e-12
2.22676e-07
4.81061e-11
4.10405e-05
0.000453161
0.000393457
0.000159875
5.73516e-11
5.02389e-07
2.60692e-10
1.50194e-10
2.168e-06
1.1792e-10
0.00012112
0.000397408
0.000351288
0.000111749
5.60451e-11
7.52104e-08
2.43223e-09
2.06409e-09
2.02935e-06
1.10244e-09
0.000113196
0.000354217
0.000317932
4.78929e-05
6.30376e-11
1.06376e-07
1.82936e-08
1.37938e-08
8.60994e-07
7.42243e-10
4.3449e-05
0.000319685
0.000291047
5.95814e-05
1.50768e-10
1.91819e-07
1.63678e-07
4.53182e-08
4.5151e-07
1.50566e-09
3.98157e-05
0.000292779
0.000268611
5.09069e-05
7.18577e-10
6.44629e-07
1.00024e-06
1.1046e-06
4.39556e-07
2.54238e-09
3.56952e-05
0.00027003
0.000250888
5.97696e-05
1.82597e-09
3.17208e-07
7.21603e-07
7.63937e-07
4.0593e-07
9.25703e-09
4.26188e-05
0.000252775
0.000236237
7.19188e-05
1.32858e-08
2.47293e-06
1.21446e-06
1.27913e-06
6.72202e-07
1.57572e-08
5.12263e-05
0.000238412
0.000223276
6.80775e-05
2.22477e-07
9.52322e-06
2.16842e-06
1.50239e-06
1.11567e-06
2.81876e-08
4.9186e-05
0.00022625
0.000211854
6.53768e-05
8.83678e-07
2.48756e-06
2.11596e-06
1.81367e-06
1.43992e-06
5.59742e-08
4.36437e-05
0.000215476
0.000201608
6.79986e-05
2.95864e-06
2.14177e-06
2.86553e-06
1.42296e-06
1.65481e-06
8.32097e-08
4.10394e-05
0.000206267
0.000192383
7.34387e-05
3.16539e-06
1.57864e-06
2.8295e-06
2.07938e-06
2.55175e-06
2.66044e-07
3.97528e-05
0.000197812
0.000183856
8.09322e-05
2.63448e-06
2.22738e-06
2.92441e-06
1.6338e-06
2.58545e-06
2.1564e-07
3.90024e-05
0.000190827
0.000176065
8.7938e-05
5.14461e-06
2.36847e-06
3.11136e-06
2.70346e-06
2.22832e-06
1.87853e-06
3.82891e-05
0.000183969
0.000168449
9.15936e-05
8.06756e-06
3.9559e-06
3.55742e-06
3.08528e-06
2.21673e-06
4.68286e-06
3.78405e-05
0.000178687
0.000161021
0.000106151
1.43373e-05
3.74458e-06
3.79954e-06
3.61168e-06
2.55666e-06
1.3232e-06
3.63493e-05
0.00017285
0.000153387
0.000116176
2.13884e-05
4.89249e-06
4.14515e-06
4.04504e-06
2.71171e-06
1.04192e-06
3.48228e-05
0.000168795
0.000145537
0.000135137
3.38484e-05
6.81675e-06
5.79088e-06
3.48921e-06
3.33746e-06
1.95391e-06
3.19781e-05
0.000163385
0.000137059
0.000142624
5.35824e-05
1.15086e-05
6.67504e-06
4.10022e-06
4.01445e-06
2.49311e-06
2.90346e-05
0.000159734
0.000127801
0.000154632
8.41781e-05
1.93699e-05
7.29762e-06
4.93171e-06
5.09889e-06
3.60023e-06
2.53297e-05
0.000154017
0.000117103
0.000170159
0.000111782
3.43431e-05
1.3114e-05
7.29614e-06
6.50981e-06
4.97197e-06
2.24766e-05
0.000148242
0.000105899
0.000187857
0.000153141
5.80498e-05
2.00532e-05
9.45434e-06
8.50186e-06
6.72217e-06
1.81325e-05
0.000142619
9.76413e-05
0.000211152
0.000189359
0.000108128
4.44737e-05
1.96321e-05
1.32163e-05
9.96331e-06
1.87628e-05
0.00012453
0.00372473
2.95978e-05
2.22869e-05
2.22877e-05
2.22928e-05
2.22924e-05
2.22873e-05
2.22866e-05
2.95587e-05
0.00371349
0.002229
1.82454e-06
5.79133e-07
5.42545e-07
5.46492e-07
5.42578e-07
5.58521e-07
5.84978e-07
1.82421e-06
0.00219153
0.00144804
1.94347e-05
2.03468e-09
2.70967e-09
3.98475e-09
2.9004e-09
8.36248e-10
2.43488e-09
1.97009e-05
0.00142506
0.00102092
3.6926e-05
6.92139e-14
3.00057e-12
1.46977e-13
6.1282e-13
6.23406e-15
8.67779e-14
3.44855e-05
0.00100287
0.000776248
3.88396e-05
1.88637e-13
2.53087e-18
2.48513e-18
4.63182e-15
3.31244e-20
4.25158e-14
3.16082e-05
0.000767432
0.000623099
5.55688e-05
4.41278e-13
5.66804e-16
1.04188e-18
1.33576e-19
2.31273e-21
8.86896e-14
4.91881e-05
0.000622248
0.000519318
5.46886e-05
1.30522e-11
6.33274e-12
3.08849e-16
9.63489e-16
2.24242e-20
1.34169e-13
4.18103e-05
0.000522648
0.000445594
9.54e-05
3.10652e-09
1.97421e-10
1.77604e-14
1.36256e-14
1.14037e-19
3.23354e-13
0.000110214
0.00045011
0.000391621
0.000200482
1.71371e-07
8.10262e-09
4.91013e-13
5.57003e-14
4.54451e-19
1.70965e-12
0.000164731
0.000395159
0.000349478
0.000102518
5.1512e-07
3.2317e-09
4.58356e-12
3.93464e-12
2.78407e-19
1.11883e-12
0.000135295
0.000353083
0.000316899
6.09325e-05
1.2886e-06
1.24469e-08
6.97223e-11
1.70921e-11
5.59943e-19
1.71174e-12
4.96611e-05
0.000319041
0.000288479
4.54704e-05
5.24819e-07
2.71053e-08
9.28389e-10
4.88342e-11
1.2018e-18
8.55195e-12
4.6087e-05
0.00029293
0.000266999
6.2422e-05
1.57143e-06
1.04605e-08
4.5379e-09
6.37905e-17
1.19178e-18
3.22374e-11
3.98125e-05
0.000270476
0.000249846
6.14141e-05
1.30707e-06
3.2575e-08
3.30841e-09
2.07717e-16
1.48866e-18
2.58596e-11
4.02898e-05
0.000253464
0.000235182
7.77781e-05
1.73379e-06
3.40557e-08
6.4436e-10
9.59012e-16
8.64882e-18
4.00172e-11
6.07426e-05
0.000238936
0.000222316
7.16503e-05
3.26759e-06
5.43469e-08
8.73192e-09
1.23187e-14
1.23827e-17
9.42505e-11
5.51982e-05
0.000226468
0.00021097
7.28532e-05
3.89719e-06
1.05853e-07
1.45839e-08
6.13396e-12
7.31611e-17
6.62314e-10
5.37207e-05
0.000215615
0.000200814
7.49259e-05
4.17645e-06
1.0751e-07
1.32452e-08
6.12145e-10
1.18052e-15
3.9247e-09
5.21189e-05
0.000206603
0.000191616
7.8229e-05
4.93558e-06
1.7793e-07
4.28702e-08
5.87928e-10
1.75467e-14
1.90876e-08
5.00598e-05
0.00019838
0.000183222
8.40267e-05
6.07584e-06
2.67067e-07
2.52345e-08
1.04981e-09
3.48219e-13
6.02468e-08
4.84392e-05
0.000191732
0.000175417
9.00155e-05
8.03742e-06
3.97597e-07
7.32193e-08
6.7966e-09
3.05635e-12
3.69754e-07
4.63327e-05
0.000185033
0.00016799
9.55495e-05
1.13366e-05
7.35713e-07
8.26399e-08
1.27557e-08
1.89604e-11
2.45413e-07
4.48863e-05
0.000180067
0.000160635
0.000105406
1.5263e-05
1.12843e-06
1.30138e-07
2.32725e-08
1.64931e-10
2.91677e-07
4.22014e-05
0.000174158
0.000153265
0.000113328
2.11129e-05
2.25544e-06
2.15442e-07
2.99718e-08
6.10059e-09
2.23349e-07
3.95496e-05
0.000170429
0.000145654
0.000128285
2.72971e-05
3.27875e-06
4.86868e-07
5.18131e-08
6.91279e-09
3.802e-07
3.53373e-05
0.000164601
0.000137716
0.000136708
4.53892e-05
6.49113e-06
8.42824e-07
1.08715e-07
6.95854e-08
2.74244e-07
3.06874e-05
0.000161437
0.000129092
0.000143049
5.9089e-05
1.04626e-05
2.03495e-06
3.02372e-07
2.9018e-08
2.27964e-07
2.5458e-05
0.000154785
0.000119701
0.000155314
8.84136e-05
2.01981e-05
3.46604e-06
9.79687e-07
2.38695e-07
2.15737e-07
1.93332e-05
0.000150043
0.000109325
0.000165859
0.000109678
3.21048e-05
7.9778e-06
1.55723e-06
3.16845e-07
2.6605e-07
1.42696e-05
0.000138035
9.82325e-05
0.000182916
0.00015271
5.46134e-05
1.43101e-05
4.30237e-06
1.17294e-06
4.11798e-07
9.38142e-06
0.000138611
0.0037244
2.96088e-05
2.22919e-05
2.22924e-05
2.2297e-05
2.22969e-05
2.22923e-05
2.22924e-05
2.95694e-05
0.00371314
0.00222756
1.8247e-06
5.64291e-07
5.42973e-07
5.41205e-07
5.47239e-07
5.42313e-07
5.62952e-07
1.82316e-06
0.00219011
0.00144604
1.9511e-05
5.83014e-09
2.96148e-09
2.83189e-09
3.58225e-09
2.85382e-09
7.46666e-09
1.98086e-05
0.00142324
0.00101901
3.7195e-05
3.77594e-13
7.06626e-14
1.86389e-12
7.09887e-14
8.00839e-13
5.7972e-13
3.53451e-05
0.00100186
0.000774566
4.17365e-05
7.19592e-14
9.12557e-19
1.40208e-18
5.36615e-19
6.30705e-15
4.43585e-13
3.4584e-05
0.000766482
0.000621161
5.35543e-05
4.82354e-13
3.56196e-18
9.17602e-24
1.05029e-25
2.89579e-19
1.28395e-10
4.66781e-05
0.000620831
0.00051768
7.17698e-05
9.35017e-13
1.97244e-15
2.96667e-20
6.90767e-24
5.04705e-18
3.55462e-09
6.32919e-05
0.000520931
0.000443427
4.80824e-05
1.30364e-11
2.55418e-14
2.08443e-18
3.51353e-20
1.40306e-17
3.74436e-09
4.42682e-05
0.000447981
0.000389713
0.000148707
9.90927e-09
3.84078e-11
7.45867e-18
5.75061e-20
1.01777e-16
4.09401e-08
0.000126049
0.000393211
0.000347859
0.000116359
7.40286e-08
4.71834e-10
3.01813e-12
4.60871e-17
4.81696e-17
4.5139e-08
0.000125143
0.000351126
0.000315656
6.47237e-05
4.38417e-06
5.63924e-09
5.50135e-12
1.10618e-17
2.18652e-16
7.11583e-08
4.53283e-05
0.000317848
0.00028692
5.19483e-05
3.70641e-07
4.70022e-09
3.54076e-11
3.53062e-14
4.80351e-14
1.77629e-07
4.83629e-05
0.000291233
0.000266363
5.62258e-05
1.00968e-06
9.13176e-09
4.76743e-11
3.45435e-17
1.52417e-12
2.81995e-07
4.08236e-05
0.00026893
0.000249105
7.63066e-05
2.31592e-06
1.83574e-08
5.9274e-12
1.24134e-15
5.82892e-11
4.357e-07
4.39459e-05
0.000251734
0.000234326
8.04394e-05
3.43544e-06
5.18212e-08
2.27532e-09
4.25557e-15
2.08002e-11
5.94835e-07
5.45947e-05
0.000237499
0.000221584
7.48879e-05
3.50514e-06
7.67252e-08
1.23188e-09
1.27944e-12
4.14658e-11
6.18582e-07
5.44007e-05
0.000225483
0.00021029
7.29323e-05
5.05584e-06
1.46631e-07
1.11416e-08
2.9693e-12
2.01915e-10
6.16705e-07
4.74563e-05
0.000214863
0.00020025
7.6556e-05
5.88357e-06
1.8746e-07
5.71841e-09
3.68215e-11
2.02678e-10
6.07047e-07
4.44225e-05
0.00020585
0.000191125
8.02244e-05
7.30999e-06
2.80354e-07
1.80511e-08
4.56586e-10
8.64046e-10
5.83947e-07
4.27885e-05
0.000197544
0.000182937
8.65121e-05
9.44487e-06
3.64256e-07
2.13335e-08
4.54179e-10
6.05131e-10
8.30668e-07
4.20254e-05
0.000190765
0.000175107
9.28278e-05
1.09199e-05
5.62551e-07
2.81883e-08
8.00573e-10
2.17769e-09
6.08212e-07
4.09668e-05
0.000183979
0.000167713
9.80639e-05
1.72642e-05
9.57408e-07
8.22194e-08
6.4653e-09
1.35358e-09
5.21372e-07
4.01417e-05
0.000178945
0.000160767
0.000110821
1.78263e-05
1.19162e-06
8.76473e-08
9.25992e-09
1.24806e-09
5.53879e-07
3.77668e-05
0.00017306
0.000153417
0.000113465
1.96934e-05
1.88112e-06
2.66276e-07
1.51709e-08
3.36935e-09
4.03562e-07
3.53528e-05
0.000169251
0.00014578
0.000125793
2.49571e-05
2.94823e-06
2.94583e-07
5.15722e-08
5.7707e-09
4.64406e-07
3.14926e-05
0.000163529
0.000137721
0.000132832
3.52363e-05
4.57887e-06
7.363e-07
6.58205e-08
3.93788e-08
4.34921e-07
2.71827e-05
0.000160371
0.000128974
0.000141326
5.54422e-05
8.61764e-06
1.05955e-06
2.15086e-07
1.13812e-08
3.2945e-07
2.24175e-05
0.00015319
0.000119214
0.000151366
8.37863e-05
1.76024e-05
3.12949e-06
3.53972e-07
2.32008e-07
4.08765e-07
1.71544e-05
0.000149964
0.000108467
0.00016635
0.000108045
2.95942e-05
5.84374e-06
1.20041e-06
1.21529e-06
3.3828e-07
1.22075e-05
0.000137239
9.59864e-05
0.000178154
0.000150122
5.21365e-05
1.43753e-05
2.89439e-06
5.39557e-07
3.65971e-07
8.12998e-06
0.000137184
0.00372438
2.96089e-05
2.22913e-05
2.22925e-05
2.2297e-05
2.22973e-05
2.22923e-05
2.22919e-05
2.95695e-05
0.00371316
0.00222757
1.82447e-06
5.86535e-07
5.50424e-07
5.46584e-07
5.48865e-07
5.42508e-07
5.5489e-07
1.82326e-06
0.00219018
0.00144611
1.94506e-05
2.42133e-09
4.3216e-09
3.4759e-09
4.05814e-09
2.88717e-09
4.03e-09
1.97949e-05
0.00142345
0.00101922
3.82758e-05
6.0241e-14
1.30132e-13
1.43776e-13
1.56463e-13
1.56456e-12
4.15793e-13
3.53398e-05
0.00100229
0.000774892
4.39675e-05
4.06702e-14
4.08007e-18
1.23643e-18
1.96477e-18
1.92562e-18
6.68357e-11
3.58012e-05
0.000767053
0.000621255
4.98059e-05
1.12905e-13
5.89992e-20
6.81734e-24
5.91988e-22
6.91622e-20
9.78959e-08
4.78802e-05
0.000621259
0.000517806
9.37963e-05
2.96357e-13
8.98476e-19
3.1169e-20
2.78245e-19
9.71231e-17
2.27797e-07
6.46048e-05
0.000521147
0.000444021
0.000133689
4.457e-13
1.07405e-17
3.37593e-18
7.34496e-15
1.30194e-13
1.07545e-07
4.47667e-05
0.000447999
0.000389888
0.000203339
6.46965e-13
1.11639e-16
4.60288e-20
2.03033e-15
1.90527e-11
1.68599e-07
0.000126222
0.000393243
0.000347867
8.87812e-05
1.6238e-12
3.93924e-16
2.55573e-15
4.8154e-16
1.68449e-10
3.03123e-07
0.000150714
0.000351159
0.000315268
5.55783e-05
3.30491e-12
1.65389e-15
6.3176e-14
1.8045e-13
2.57561e-10
2.61286e-07
6.19361e-05
0.000318097
0.000287902
4.91885e-05
1.31213e-11
2.91947e-15
4.46783e-14
5.90966e-13
8.37432e-10
2.39696e-07
4.5016e-05
0.000290727
0.000266328
6.35022e-05
3.80131e-11
9.67709e-15
1.67521e-12
3.25896e-12
6.13588e-10
1.04467e-06
5.37303e-05
0.000268952
0.000249032
6.13097e-05
1.40947e-10
7.73241e-14
3.54813e-12
3.40699e-13
1.49804e-09
8.63786e-07
4.75664e-05
0.000251759
0.000234325
7.82657e-05
1.31905e-09
1.47821e-13
2.09922e-12
3.1047e-12
1.0282e-09
8.15735e-07
6.11006e-05
0.000237658
0.000221554
7.15172e-05
2.69922e-08
1.20385e-11
2.76091e-12
7.86856e-12
1.19941e-09
7.85756e-07
5.22134e-05
0.000225589
0.000210286
7.12995e-05
4.95368e-07
1.32471e-09
3.10936e-11
1.59679e-11
1.94701e-09
8.72702e-07
5.20116e-05
0.000214907
0.000200257
7.39727e-05
1.49029e-06
4.82026e-08
1.05584e-09
9.85118e-12
2.80249e-09
1.08593e-06
5.29501e-05
0.00020586
0.0001911
7.8188e-05
2.25435e-06
2.81184e-08
8.14057e-09
2.65508e-10
4.28385e-09
1.30659e-06
5.34449e-05
0.000197564
0.000182837
8.40919e-05
2.4524e-06
2.73902e-08
1.65756e-09
2.6642e-09
5.04598e-09
1.40394e-06
5.402e-05
0.000190856
0.000175097
8.97521e-05
4.38458e-06
1.55754e-07
4.68297e-10
1.648e-10
6.62685e-09
1.52375e-06
5.28893e-05
0.000184254
0.000167714
9.89262e-05
7.08786e-06
3.3841e-07
2.43782e-08
3.53591e-11
7.32486e-09
1.58471e-06
5.09081e-05
0.00017937
0.000160646
0.000103209
8.97737e-06
5.17231e-07
1.72633e-08
2.42832e-09
7.20488e-09
1.45265e-06
4.73557e-05
0.000173641
0.000153282
0.000108796
1.46695e-05
1.18508e-06
8.62367e-08
3.58353e-09
8.65846e-09
1.25923e-06
4.30412e-05
0.00017005
0.000145713
0.0001248
2.11684e-05
2.09072e-06
1.45736e-07
1.85955e-08
5.80284e-09
1.03434e-06
3.76427e-05
0.000164367
0.000137662
0.000132231
3.24942e-05
3.97404e-06
4.92685e-07
3.34881e-08
2.07925e-08
7.84612e-07
3.19631e-05
0.000160941
0.000128908
0.000140743
5.46031e-05
8.29946e-06
9.0115e-07
1.60519e-07
6.04414e-09
5.75854e-07
2.5895e-05
0.000155207
0.000119134
0.000150692
8.33974e-05
1.76134e-05
2.932e-06
3.33159e-07
1.32479e-07
3.73706e-07
1.96332e-05
0.000148091
0.00010837
0.000165881
0.000108055
2.97351e-05
5.80517e-06
1.29805e-06
1.4977e-07
3.07615e-07
1.31782e-05
0.00014194
9.59042e-05
0.000178333
0.000150382
5.35295e-05
1.44946e-05
3.16466e-06
7.67692e-07
3.74828e-07
9.25099e-06
0.000121234
0.00372467
2.9598e-05
2.2288e-05
2.22878e-05
2.22925e-05
2.22923e-05
2.22877e-05
2.22874e-05
2.95589e-05
0.00371353
0.00222894
1.82494e-06
5.63352e-07
5.51291e-07
5.44686e-07
5.59846e-07
5.43641e-07
5.587e-07
1.82508e-06
0.00219166
0.00144831
1.94218e-05
6.08263e-09
4.22046e-09
3.45555e-09
9.42896e-10
2.78342e-09
4.42073e-09
1.96457e-05
0.00142571
0.00102183
3.79203e-05
9.60508e-13
1.6134e-13
4.34602e-13
8.7242e-15
4.16361e-14
8.51213e-13
3.57911e-05
0.00100472
0.000777678
4.35304e-05
2.00256e-13
2.83588e-18
3.29061e-15
5.61816e-21
4.04737e-16
1.47122e-13
3.53513e-05
0.000769918
0.000623759
4.91756e-05
5.88464e-13
5.79245e-19
3.7815e-12
2.45305e-23
3.86098e-15
1.66119e-13
5.29196e-05
0.000623989
0.000519964
9.357e-05
1.39178e-12
1.89246e-15
4.42883e-11
7.59287e-17
2.94922e-13
5.26415e-13
4.54455e-05
0.000523455
0.000445923
0.000133729
1.55917e-11
1.26399e-14
1.45821e-09
7.76586e-11
3.6242e-14
1.34392e-11
0.000114726
0.000450043
0.000391531
0.000191425
2.59231e-09
6.63004e-12
3.23741e-10
2.70589e-09
5.14771e-11
4.65529e-10
0.000128891
0.000394893
0.000349466
9.77822e-05
3.07279e-08
1.85913e-10
8.49641e-10
2.66594e-13
1.07185e-09
8.73374e-09
0.000180419
0.000352636
0.00031657
6.24372e-05
7.13624e-07
1.7646e-10
1.77209e-09
1.87122e-10
7.79723e-10
7.06413e-08
7.47224e-05
0.000319485
0.000289299
4.40447e-05
5.43538e-07
3.36472e-09
1.8118e-09
5.46304e-10
6.65351e-09
2.27977e-07
4.40858e-05
0.000292445
0.000267406
6.0769e-05
9.74412e-07
5.84748e-09
5.51733e-09
6.78284e-10
7.30668e-09
3.55272e-07
4.70504e-05
0.000270613
0.000250204
5.81404e-05
1.18836e-06
7.57939e-09
8.82003e-09
7.61781e-10
2.5268e-08
5.44327e-07
4.62121e-05
0.000253333
0.000235339
7.51897e-05
2.49686e-06
2.60453e-08
5.9275e-09
1.54636e-09
2.66583e-08
4.1531e-07
5.58898e-05
0.000238787
0.000222487
7.93598e-05
2.93733e-06
4.94382e-08
1.24798e-08
2.98037e-09
3.01658e-08
8.7348e-07
5.01094e-05
0.000226701
0.000211029
7.35693e-05
3.42418e-06
5.94513e-08
1.49847e-08
4.93911e-09
3.59525e-08
7.9693e-07
5.15333e-05
0.000215968
0.000200813
7.41007e-05
4.78032e-06
1.44052e-07
9.96042e-09
1.0633e-08
4.07523e-08
1.32021e-06
4.48281e-05
0.000206708
0.000191575
8.35667e-05
5.63033e-06
1.43e-07
2.14401e-08
1.52716e-08
4.04932e-08
1.26965e-06
5.08223e-05
0.000198355
0.000183262
9.24827e-05
8.26815e-06
3.3907e-07
1.62352e-08
2.48347e-08
5.73848e-08
1.27503e-06
5.36909e-05
0.000191674
0.000175378
9.40872e-05
8.60073e-06
3.74746e-07
3.06853e-08
3.18785e-08
4.40957e-08
1.27621e-06
5.33832e-05
0.000185076
0.000168208
0.000106927
9.91223e-06
6.74258e-07
3.55368e-08
4.1879e-08
7.49001e-08
1.21001e-06
5.11258e-05
0.000180314
0.00016088
0.000105121
1.28003e-05
1.02596e-06
1.0941e-07
4.86186e-08
8.47809e-08
1.11384e-06
4.67667e-05
0.000174451
0.00015344
0.000109985
1.79924e-05
1.71379e-06
1.64641e-07
9.03486e-08
9.80813e-08
9.86717e-07
4.28313e-05
0.000170976
0.000145709
0.000124904
2.37246e-05
2.75686e-06
4.31961e-07
1.43519e-07
8.13855e-08
8.30857e-07
3.63907e-05
0.000165047
0.000137624
0.000133777
3.99436e-05
5.00226e-06
6.24927e-07
2.28313e-07
2.21475e-07
6.70063e-07
3.2133e-05
0.000161654
0.000128908
0.000141288
5.62237e-05
9.29481e-06
1.77886e-06
3.87952e-07
1.69448e-07
6.36234e-07
2.47325e-05
0.000155936
0.00011937
0.000154048
8.70169e-05
1.94368e-05
2.92053e-06
8.15987e-07
6.90084e-07
5.78771e-07
2.03636e-05
0.000148115
0.000109045
0.000167011
0.000110682
3.16737e-05
7.25037e-06
1.38721e-06
4.73384e-07
5.72239e-07
1.296e-05
0.000142802
9.78767e-05
0.000182545
0.000154653
5.73251e-05
1.3906e-05
3.88611e-06
1.65975e-06
8.68595e-07
9.20259e-06
0.000123158
0.00372628
2.96198e-05
2.22882e-05
2.22876e-05
2.22921e-05
2.22924e-05
2.22878e-05
2.22882e-05
2.95813e-05
0.00371536
0.00223227
1.83314e-06
5.72455e-07
5.64923e-07
5.55979e-07
5.6005e-07
5.65836e-07
5.73985e-07
1.8347e-06
0.00219529
0.00145345
1.98608e-05
6.8276e-09
6.68571e-09
4.69966e-09
6.41369e-09
7.15477e-09
7.8587e-09
2.00456e-05
0.00143015
0.00102737
4.02784e-05
1.42818e-12
3.98652e-13
7.16543e-13
7.0022e-13
6.94011e-13
2.19838e-12
3.8406e-05
0.00100947
0.000784163
4.49097e-05
5.20292e-13
5.59251e-14
3.07131e-11
2.24883e-12
7.28023e-13
5.81184e-13
3.99136e-05
0.000776023
0.000630015
5.63883e-05
1.10203e-12
1.19727e-13
6.58894e-08
6.17975e-09
1.04686e-09
6.85636e-13
5.09791e-05
0.000630575
0.000524484
7.27523e-05
1.85904e-12
5.46897e-13
1.10459e-07
4.26555e-07
9.93861e-08
2.33655e-12
6.61719e-05
0.000528868
0.000448709
4.80166e-05
2.03704e-12
5.74734e-12
3.1015e-07
1.98748e-07
1.23314e-07
4.42009e-12
4.41475e-05
0.000453632
0.000393651
0.000151901
5.49336e-12
8.43778e-11
3.22265e-07
2.28336e-07
7.80065e-07
5.74357e-11
0.000138884
0.000397341
0.000351209
9.12696e-05
1.49311e-11
1.41597e-09
5.45724e-07
2.23339e-07
2.54771e-07
3.95913e-11
8.83229e-05
0.000353743
0.000318005
5.47768e-05
4.74217e-11
1.2892e-08
5.69472e-07
3.8132e-07
3.15619e-07
9.35469e-11
5.47514e-05
0.000320064
0.000290604
4.09653e-05
4.33939e-10
6.70418e-08
6.21515e-07
5.11785e-07
1.18768e-06
1.96187e-09
4.5236e-05
0.000290848
0.000268413
5.20225e-05
5.97779e-09
3.14536e-07
1.27326e-06
3.38763e-06
9.03283e-07
1.06785e-08
5.76023e-05
0.000269359
0.000250963
5.89635e-05
1.35405e-07
3.45308e-07
1.65069e-06
1.40712e-06
2.04789e-06
1.10047e-08
5.13622e-05
0.000252671
0.000236387
7.13432e-05
3.08677e-07
5.36341e-07
1.27718e-06
1.54925e-06
2.0944e-06
2.51875e-08
6.96138e-05
0.000238373
0.000223469
6.81782e-05
1.54337e-06
8.41247e-07
1.61222e-06
1.44369e-06
2.1937e-06
1.21603e-07
6.39371e-05
0.000226271
0.00021203
6.69571e-05
2.91207e-06
1.26909e-06
1.62814e-06
1.70579e-06
2.5284e-06
4.65688e-07
6.03096e-05
0.000215631
0.000201767
6.88096e-05
2.62278e-06
1.86789e-06
1.76498e-06
2.17557e-06
2.91477e-06
1.02319e-06
5.80754e-05
0.000206576
0.000192497
7.34937e-05
2.81975e-06
2.10151e-06
1.90855e-06
2.63177e-06
3.41813e-06
1.23204e-06
5.56383e-05
0.00019829
0.000183987
7.99705e-05
4.45402e-06
2.39903e-06
1.90346e-06
3.28118e-06
3.72894e-06
1.21375e-06
5.38479e-05
0.00019145
0.000176088
8.61995e-05
6.23141e-06
3.10765e-06
2.0428e-06
3.57343e-06
3.76063e-06
1.63926e-06
5.13336e-05
0.000184749
0.000168464
9.20198e-05
8.54833e-06
3.98627e-06
2.56512e-06
4.19419e-06
4.90083e-06
2.13467e-06
4.9007e-05
0.000179616
0.000160994
0.00010409
1.28499e-05
5.69578e-06
3.14362e-06
4.5026e-06
5.0355e-06
2.72369e-06
4.58248e-05
0.000173768
0.000153339
0.000112677
1.85902e-05
6.66162e-06
3.91115e-06
4.80112e-06
5.36366e-06
2.98271e-06
4.27619e-05
0.000169824
0.00014543
0.000131299
2.76765e-05
1.25301e-05
5.69854e-06
6.16564e-06
5.10928e-06
3.91123e-06
3.87262e-05
0.000164292
0.000136882
0.000139813
4.54742e-05
1.14573e-05
6.39299e-06
7.02714e-06
6.23376e-06
4.34386e-06
3.45451e-05
0.000160537
0.000127471
0.000151402
7.23592e-05
1.78059e-05
9.65343e-06
8.63896e-06
7.08433e-06
5.95655e-06
3.05789e-05
0.000154351
0.000116642
0.000167137
0.000101505
2.74155e-05
9.94047e-06
8.99731e-06
8.55286e-06
7.30879e-06
2.61224e-05
0.000152037
0.000105163
0.000184185
0.000142235
5.06944e-05
2.12502e-05
1.1382e-05
9.84759e-06
9.83925e-06
2.17093e-05
0.000138484
9.68971e-05
0.000207552
0.000181466
9.86919e-05
3.46915e-05
1.9076e-05
1.30832e-05
1.21469e-05
2.13677e-05
0.000139875
0.00373693
3.91886e-05
2.9583e-05
2.95611e-05
2.95717e-05
2.95718e-05
2.95611e-05
2.95835e-05
3.91456e-05
0.00372662
0.00222931
3.34911e-06
1.84429e-06
1.82743e-06
1.82426e-06
1.82689e-06
1.82838e-06
1.83918e-06
3.3441e-06
0.00219511
0.00145284
1.91446e-05
1.98779e-05
1.96656e-05
1.98527e-05
1.96995e-05
1.95829e-05
1.99012e-05
1.94997e-05
0.00142466
0.00102163
0.00020286
3.81114e-05
3.5563e-05
3.58951e-05
3.72871e-05
3.72828e-05
4.03968e-05
0.000195734
0.000999604
0.000777185
0.000364535
3.85671e-05
3.47334e-05
3.55556e-05
3.9173e-05
4.10845e-05
4.36764e-05
0.000343506
0.000766358
0.000626035
0.000402263
4.85212e-05
5.25151e-05
5.09347e-05
5.13454e-05
4.80653e-05
6.32967e-05