/*--------------------------------*- C++ -*----------------------------------*\
| =========                 |                                                 |
| \\      /  F ield         | OpenFOAM: The Open Source CFD Toolbox           |
|  \\    /   O peration     | Version:  4.1                                   |
|   \\  /    A nd           | Web:      www.OpenFOAM.org                      |
|    \\/     M anipulation  |                                                 |
\*---------------------------------------------------------------------------*/
FoamFile
{
    version     2.0;
    format      ascii;
    class       volScalarField;
    location    "1300";
    object      p;
}
// * * * * * * * * * * * * * * * * * * * * * * * * * * * * * * * * * * * * * //

dimensions      [0 2 -2 0 0 0 0];

internalField   nonuniform List<scalar> 
12000
(
0.0764944
0.0767738
0.0764383
0.076318
0.0762803
0.0762788
0.0763135
0.0764311
0.0767641
0.0764814
0.0759288
0.0759132
0.0758513
0.0758541
0.0758406
0.075839
0.0758493
0.0758438
0.0759029
0.0759155
0.0758113
0.0755745
0.0756369
0.0756852
0.0756871
0.0756852
0.0756797
0.075628
0.0755627
0.0757961
0.0757842
0.0755201
0.0756044
0.0756321
0.075632
0.0756297
0.0756253
0.0755935
0.0755053
0.0757659
0.0756896
0.0754698
0.0755552
0.0755579
0.0755552
0.0755523
0.0755495
0.0755418
0.0754518
0.0756675
0.0755688
0.0753936
0.0754757
0.0754652
0.0754647
0.075461
0.0754547
0.0754589
0.0753719
0.0755419
0.075469
0.0753275
0.0754014
0.0753832
0.0753856
0.0753812
0.07537
0.0753802
0.0752999
0.0754349
0.0753952
0.0752798
0.0753437
0.0753194
0.0753225
0.0753172
0.0753023
0.0753163
0.0752436
0.0753512
0.0753364
0.0752416
0.0752958
0.075267
0.0752692
0.0752624
0.0752447
0.0752603
0.0751944
0.0752797
0.0752863
0.075207
0.0752526
0.0752205
0.0752213
0.075212
0.0751912
0.0752066
0.0751468
0.0752138
0.0752442
0.0751758
0.0752137
0.075179
0.0751775
0.075165
0.0751408
0.0751538
0.0750992
0.0751515
0.0752113
0.0751499
0.0751798
0.0751429
0.0751379
0.0751217
0.0750932
0.0751024
0.0750508
0.0750919
0.0751881
0.0751306
0.0751519
0.0751121
0.075102
0.0750813
0.0750477
0.0750513
0.0750005
0.0750331
0.0751748
0.0751187
0.0751308
0.0750862
0.0750689
0.0750419
0.0750024
0.0749987
0.0749472
0.0749725
0.0751721
0.075115
0.0751166
0.0750649
0.075038
0.0750026
0.0749556
0.0749433
0.0748897
0.0749083
0.0751811
0.0751206
0.0751097
0.0750483
0.0750093
0.0749628
0.074906
0.0748833
0.0748258
0.0748377
0.0752035
0.0751375
0.0751112
0.075037
0.0749826
0.0749219
0.0748524
0.0748168
0.0747528
0.0747575
0.0752414
0.0751677
0.0751224
0.0750315
0.0749577
0.0748786
0.0747925
0.0747409
0.074667
0.0746636
0.0752972
0.0752142
0.075145
0.0750326
0.0749343
0.0748318
0.0747237
0.0746515
0.0745636
0.0745506
0.0753734
0.0752803
0.075181
0.0750411
0.0749123
0.0747798
0.074643
0.0745438
0.0744363
0.0744115
0.0754707
0.075369
0.0752326
0.0750582
0.0748914
0.0747209
0.0745463
0.0744114
0.0742768
0.0742367
0.0755875
0.0754812
0.0753017
0.075085
0.0748719
0.0746531
0.0744288
0.0742459
0.0740732
0.0740122
0.0757169
0.0756141
0.0753896
0.0751235
0.0748544
0.0745744
0.0742844
0.0740357
0.0738081
0.0737169
0.0758457
0.0757572
0.0754966
0.0751766
0.074841
0.0744835
0.0741056
0.0737647
0.0734553
0.073318
0.0759549
0.0758913
0.0756208
0.0752498
0.0748358
0.0743798
0.0738837
0.0734099
0.0729733
0.0727596
0.076027
0.0759944
0.0757598
0.0753529
0.0748469
0.0742646
0.0736073
0.0729377
0.072293
0.0719417
0.0760636
0.0760608
0.0759098
0.0754922
0.0748832
0.0741413
0.0732643
0.0723009
0.0712977
0.0706517
0.0760924
0.0761369
0.0760716
0.0756568
0.0749429
0.0740075
0.0728304
0.0714166
0.0697833
0.0684242
0.0760981
0.0761728
0.0761368
0.0757483
0.0749751
0.0738488
0.072298
0.0701895
0.0674607
0.0638242
0.0760496
0.0760912
0.0759865
0.0755816
0.0748051
0.0735143
0.0715167
0.0682625
0.0639222
0.0531381
0.0767751
0.0768109
0.0764818
0.0763638
0.0763237
0.0763222
0.0763593
0.0764749
0.0768018
0.0767615
0.0759145
0.0758675
0.0758331
0.07584
0.0758248
0.0758232
0.0758353
0.0758257
0.0758576
0.0759011
0.075576
0.0753601
0.0754458
0.0755008
0.0755018
0.0754999
0.0754955
0.0754374
0.0753487
0.075561
0.0755221
0.0752652
0.0753667
0.0753943
0.0753926
0.0753903
0.0753878
0.0753567
0.0752516
0.0755035
0.0754723
0.07525
0.0753538
0.0753499
0.0753459
0.0753432
0.0753417
0.0753412
0.0752326
0.0754499
0.0753969
0.0752133
0.0753149
0.0752953
0.075296
0.0752926
0.0752848
0.0752984
0.0751908
0.0753698
0.0753318
0.0751765
0.0752684
0.0752404
0.0752465
0.0752422
0.0752269
0.0752473
0.075148
0.0752971
0.0752852
0.0751533
0.0752325
0.0751979
0.0752064
0.0752008
0.0751805
0.0752056
0.0751174
0.07524
0.0752485
0.075137
0.0752042
0.0751651
0.0751735
0.0751663
0.0751426
0.0751696
0.0750912
0.0751896
0.0752157
0.0751213
0.0751777
0.0751361
0.075143
0.0751338
0.075107
0.0751325
0.0750619
0.0751403
0.0751872
0.0751062
0.0751524
0.0751092
0.075113
0.0751012
0.0750712
0.075093
0.0750285
0.0750909
0.0751647
0.0750936
0.07513
0.0750849
0.0750841
0.0750686
0.0750352
0.0750519
0.0749918
0.0750408
0.0751491
0.0750847
0.0751117
0.0750636
0.0750565
0.0750359
0.0749986
0.0750093
0.0749519
0.0749889
0.0751415
0.0750809
0.0750976
0.0750453
0.0750301
0.0750032
0.0749606
0.0749641
0.0749074
0.0749338
0.0751434
0.0750833
0.0750881
0.0750298
0.0750047
0.0749696
0.0749199
0.0749145
0.0748564
0.0748741
0.0751561
0.0750932
0.0750844
0.0750176
0.0749802
0.0749344
0.0748754
0.0748589
0.0747969
0.0748071
0.075181
0.0751126
0.0750875
0.0750092
0.0749563
0.0748967
0.0748253
0.074795
0.0747265
0.0747292
0.0752199
0.0751438
0.0750991
0.0750052
0.0749328
0.0748554
0.0747675
0.07472
0.0746418
0.0746362
0.075275
0.0751893
0.0751207
0.0750062
0.0749093
0.0748089
0.0746995
0.0746301
0.0745381
0.0745226
0.0753483
0.0752521
0.0751539
0.0750128
0.0748854
0.0747554
0.0746176
0.0745201
0.0744086
0.0743812
0.0754408
0.0753344
0.0752003
0.0750257
0.0748603
0.0746925
0.0745175
0.0743833
0.0742444
0.0742016
0.0755512
0.0754375
0.0752614
0.0750454
0.0748336
0.0746176
0.0743934
0.0742103
0.0740326
0.0739688
0.0756751
0.0755598
0.0753382
0.0750731
0.0748049
0.0745275
0.0742379
0.073988
0.0737542
0.0736601
0.0758026
0.0756958
0.0754315
0.0751109
0.0747752
0.0744195
0.0740419
0.0736981
0.0733802
0.0732394
0.0759183
0.0758332
0.0755412
0.0751628
0.0747472
0.0742918
0.0737944
0.0733146
0.0728645
0.0726457
0.0760056
0.0759541
0.0756666
0.0752356
0.0747265
0.0741439
0.073482
0.0727999
0.0721307
0.071769
0.0760563
0.076041
0.0758014
0.0753346
0.0747206
0.0739784
0.0730902
0.0721014
0.071048
0.0703747
0.0760774
0.0760993
0.0759322
0.0754496
0.0747278
0.0737926
0.072595
0.0711343
0.0693941
0.0679571
0.076058
0.0760971
0.0759766
0.0755082
0.0747158
0.0735791
0.0719866
0.0697912
0.0668476
0.0629608
0.0760182
0.07599
0.0757872
0.0753205
0.0745193
0.0732147
0.0711774
0.067764
0.0631341
0.0515421
0.0764409
0.0764831
0.0761768
0.0760542
0.0760127
0.0760112
0.0760498
0.07617
0.0764742
0.0764268
0.0758539
0.0758344
0.075806
0.0758079
0.0757927
0.0757911
0.0758032
0.0757987
0.0758246
0.0758406
0.0756398
0.0754473
0.0755332
0.0755868
0.0755882
0.0755863
0.0755814
0.0755248
0.075436
0.0756249
0.0756079
0.0753686
0.075468
0.0754944
0.0754923
0.0754901
0.0754879
0.075458
0.075355
0.0755901
0.0755597
0.0753562
0.0754599
0.0754537
0.075449
0.0754463
0.0754455
0.0754473
0.075339
0.0755381
0.0754815
0.0753178
0.0754228
0.0754013
0.0754025
0.0753991
0.0753908
0.0754065
0.0752956
0.0754545
0.0754091
0.075272
0.0753691
0.0753396
0.0753477
0.0753433
0.0753261
0.075348
0.0752438
0.0753747
0.0753534
0.0752371
0.0753216
0.0752854
0.0752967
0.0752909
0.075268
0.0752944
0.075201
0.0753096
0.075308
0.0752102
0.0752826
0.0752415
0.0752529
0.0752456
0.0752191
0.0752474
0.0751636
0.0752519
0.0752678
0.0751855
0.0752471
0.0752035
0.0752132
0.0752041
0.0751744
0.0752014
0.0751249
0.0751953
0.0752335
0.0751625
0.0752133
0.0751685
0.0751751
0.0751635
0.0751307
0.0751543
0.0750837
0.0751387
0.0752063
0.0751428
0.0751831
0.0751368
0.0751385
0.0751231
0.0750873
0.0751059
0.0750404
0.0750829
0.0751856
0.0751278
0.0751581
0.0751087
0.0751037
0.0750834
0.0750438
0.0750563
0.0749945
0.0750271
0.0751732
0.0751181
0.0751377
0.0750841
0.075071
0.0750443
0.0749998
0.075005
0.0749449
0.0749685
0.0751707
0.0751148
0.0751221
0.0750628
0.0750398
0.0750051
0.0749538
0.0749499
0.0748895
0.074905
0.075179
0.0751193
0.0751125
0.075045
0.0750099
0.0749647
0.0749044
0.0748893
0.074826
0.0748338
0.0751994
0.0751332
0.0751101
0.0750313
0.0749809
0.0749221
0.0748496
0.0748207
0.0747518
0.0747518
0.0752336
0.0751586
0.0751162
0.075022
0.0749524
0.074876
0.0747873
0.074741
0.0746632
0.0746546
0.0752834
0.0751977
0.0751318
0.0750174
0.0749237
0.0748245
0.0747145
0.0746466
0.0745553
0.0745369
0.0753502
0.0752528
0.0751582
0.0750178
0.0748939
0.0747655
0.0746276
0.0745319
0.0744213
0.0743909
0.0754345
0.0753255
0.0751964
0.075023
0.0748618
0.0746961
0.0745214
0.0743896
0.0742516
0.0742057
0.0755346
0.0754167
0.0752472
0.0750333
0.0748262
0.0746128
0.0743895
0.0742096
0.0740325
0.0739654
0.0756462
0.0755247
0.0753107
0.0750485
0.0747858
0.0745119
0.0742237
0.0739777
0.073744
0.0736462
0.0757613
0.0756448
0.0753867
0.0750694
0.0747401
0.0743891
0.0740135
0.0736743
0.0733553
0.07321
0.0758694
0.0757678
0.0754738
0.0750977
0.07469
0.0742412
0.0737466
0.0732714
0.0728178
0.0725922
0.0759587
0.0758815
0.0755704
0.0751369
0.0746389
0.0740665
0.0734082
0.0727293
0.0720509
0.0716775
0.0760206
0.0759735
0.075673
0.0751922
0.074595
0.0738696
0.0729864
0.0719964
0.0709193
0.070222
0.0760546
0.0760363
0.0757726
0.0752652
0.0745705
0.0736636
0.0724731
0.0710018
0.0692014
0.0677073
0.0760653
0.0760629
0.0758452
0.0753552
0.0746004
0.0735043
0.0719213
0.0697011
0.0666217
0.0625831
0.0760693
0.0760453
0.0758536
0.0754489
0.0747258
0.0734709
0.0714375
0.0679746
0.0631034
0.051086
0.076322
0.0763664
0.0760555
0.075932
0.0758902
0.0758887
0.0759277
0.0760487
0.0763575
0.0763077
0.075858
0.0758426
0.0758093
0.0758116
0.0757965
0.0757949
0.075807
0.075802
0.0758329
0.0758447
0.0756898
0.0755039
0.0755883
0.0756442
0.0756458
0.0756439
0.0756389
0.07558
0.0754926
0.075675
0.0756377
0.0753979
0.0754962
0.0755245
0.0755221
0.0755199
0.0755181
0.0754861
0.0753842
0.0756202
0.0755649
0.0753544
0.0754559
0.0754499
0.0754444
0.0754417
0.0754417
0.0754432
0.0753372
0.0755435
0.0754741
0.0753011
0.0754042
0.0753818
0.0753824
0.075379
0.0753714
0.0753879
0.0752791
0.0754473
0.0753949
0.0752478
0.0753433
0.0753125
0.0753204
0.075316
0.0752991
0.0753225
0.0752199
0.0753604
0.0753344
0.0752075
0.0752902
0.0752522
0.0752633
0.0752578
0.0752349
0.0752634
0.0751716
0.07529
0.0752863
0.0751775
0.0752479
0.0752046
0.0752158
0.0752087
0.0751821
0.0752131
0.0751312
0.0752288
0.0752456
0.0751523
0.0752117
0.0751658
0.0751754
0.0751663
0.0751367
0.0751668
0.0750923
0.0751703
0.0752116
0.0751303
0.0751794
0.0751321
0.0751386
0.0751268
0.0750942
0.0751213
0.0750526
0.0751127
0.0751849
0.0751123
0.0751511
0.0751024
0.075104
0.0750887
0.0750529
0.0750747
0.0750111
0.0750578
0.0751657
0.0750991
0.0751277
0.0750766
0.0750717
0.0750515
0.0750118
0.0750268
0.0749671
0.0750045
0.0751546
0.0750915
0.0751091
0.0750544
0.0750414
0.075015
0.0749703
0.0749774
0.0749192
0.0749481
0.075153
0.0750901
0.0750955
0.0750356
0.0750127
0.0749783
0.0749269
0.0749244
0.0748655
0.0748858
0.0751619
0.0750964
0.0750878
0.0750202
0.074985
0.0749402
0.0748798
0.0748657
0.0748037
0.0748155
0.0751826
0.0751118
0.0750868
0.0750085
0.0749579
0.0748995
0.0748271
0.0747989
0.0747308
0.074734
0.0752166
0.075138
0.0750936
0.0750005
0.0749308
0.0748548
0.0747664
0.0747208
0.0746433
0.0746371
0.0752655
0.075177
0.0751091
0.0749964
0.0749027
0.0748041
0.0746946
0.0746272
0.0745358
0.0745191
0.0753303
0.0752306
0.0751341
0.0749959
0.0748724
0.0747448
0.0746077
0.0745125
0.0744014
0.074372
0.0754112
0.0753003
0.0751694
0.0749989
0.0748385
0.0746739
0.0745003
0.074369
0.0742302
0.0741846
0.0755066
0.0753867
0.0752153
0.0750048
0.0747993
0.0745875
0.0743656
0.0741861
0.074008
0.0739405
0.0756127
0.0754886
0.0752722
0.0750135
0.0747532
0.0744813
0.0741949
0.0739495
0.0737142
0.0736152
0.0757231
0.0756021
0.0753398
0.0750253
0.0746993
0.074351
0.0739776
0.0736388
0.0733174
0.07317
0.0758297
0.0757204
0.0754178
0.0750421
0.0746388
0.0741937
0.0737017
0.0732265
0.0727689
0.0725394
0.0759237
0.0758342
0.0755061
0.0750694
0.0745772
0.0740105
0.0733552
0.0726752
0.071989
0.0716082
0.0759986
0.0759348
0.0756056
0.0751182
0.0745303
0.0738139
0.0729344
0.0719408
0.0708485
0.0701371
0.0760543
0.0760168
0.0757168
0.075206
0.0745282
0.0736356
0.0724496
0.070971
0.0691426
0.0676203
0.0760966
0.0760793
0.0758424
0.0753692
0.0746437
0.0735672
0.0719898
0.0697605
0.0666411
0.0625675
0.0761292
0.0761162
0.0759798
0.0756448
0.0749642
0.0737236
0.0716901
0.0682205
0.0633132
0.0513276
0.0762858
0.0763279
0.0760155
0.0758917
0.0758498
0.0758484
0.0758874
0.0760087
0.0763189
0.0762716
0.0758462
0.075829
0.0757957
0.075798
0.0757828
0.0757812
0.0757934
0.0757884
0.0758193
0.0758329
0.0756935
0.0755066
0.0755915
0.0756475
0.075649
0.0756472
0.0756423
0.0755832
0.0754953
0.0756788
0.0756398
0.0753984
0.0754963
0.0755243
0.0755216
0.0755194
0.0755178
0.0754861
0.0753846
0.0756224
0.0755649
0.0753533
0.075454
0.0754472
0.0754412
0.0754385
0.075439
0.0754413
0.075336
0.0755436
0.075477
0.0753054
0.0754089
0.0753859
0.0753861
0.0753827
0.0753755
0.0753927
0.0752835
0.0754503
0.0754017
0.0752586
0.0753559
0.0753249
0.0753328
0.0753285
0.0753116
0.0753352
0.0752306
0.0753673
0.0753438
0.0752219
0.0753072
0.0752693
0.0752808
0.0752753
0.0752519
0.0752805
0.075186
0.0752993
0.0752968
0.0751937
0.0752668
0.0752236
0.0752353
0.0752283
0.075201
0.0752319
0.0751472
0.0752395
0.0752565
0.0751693
0.0752316
0.0751856
0.0751958
0.0751868
0.0751563
0.0751864
0.0751091
0.0751821
0.0752228
0.0751473
0.0751993
0.0751518
0.0751592
0.0751475
0.0751139
0.0751407
0.0750693
0.0751259
0.0751964
0.0751286
0.07517
0.0751212
0.0751241
0.0751088
0.0750718
0.0750938
0.0750271
0.0750714
0.0751773
0.0751143
0.075145
0.075094
0.0750905
0.0750705
0.0750296
0.0750453
0.0749822
0.075017
0.0751658
0.0751053
0.0751249
0.0750703
0.0750588
0.0750326
0.0749867
0.0749945
0.0749332
0.0749596
0.0751632
0.0751025
0.0751099
0.07505
0.0750285
0.0749943
0.0749417
0.0749401
0.0748783
0.0748965
0.0751707
0.0751072
0.0751006
0.0750331
0.0749991
0.0749545
0.074893
0.0748799
0.0748153
0.0748253
0.0751897
0.0751207
0.075098
0.0750196
0.0749702
0.0749121
0.0748386
0.0748114
0.0747412
0.0747428
0.0752218
0.0751448
0.0751028
0.0750096
0.074941
0.0748654
0.0747762
0.0747316
0.0746523
0.0746448
0.0752685
0.0751813
0.0751158
0.0750032
0.0749106
0.0748125
0.0747025
0.0746362
0.0745433
0.0745254
0.0753308
0.075232
0.0751379
0.075
0.0748776
0.0747508
0.0746133
0.0745193
0.0744071
0.0743766
0.0754088
0.0752983
0.0751697
0.0749996
0.0748405
0.0746769
0.0745031
0.0743732
0.0742336
0.0741871
0.0755011
0.0753809
0.0752115
0.0750017
0.0747975
0.0745868
0.0743651
0.0741871
0.0740085
0.0739403
0.0756043
0.0754789
0.0752637
0.0750058
0.0747469
0.0744763
0.0741903
0.0739465
0.0737111
0.0736114
0.0757126
0.0755893
0.0753264
0.0750124
0.0746879
0.0743411
0.0739682
0.0736312
0.0733098
0.0731615
0.0758193
0.0757063
0.0754001
0.0750239
0.0746221
0.074179
0.0736876
0.073214
0.0727562
0.0725255
0.0759166
0.0758222
0.0754859
0.0750471
0.0745569
0.0739927
0.0733383
0.0726593
0.071972
0.0715892
0.0759983
0.0759292
0.0755873
0.0750962
0.0745118
0.0737994
0.0729211
0.0719277
0.0708325
0.0701174
0.0760629
0.0760209
0.075708
0.0751952
0.0745244
0.0736384
0.0724548
0.0709755
0.0691415
0.0676131
0.0761136
0.0760938
0.0758553
0.075391
0.0746795
0.0736148
0.0720437
0.0698158
0.0666909
0.0626059
0.0761525
0.0761426
0.0760349
0.0757336
0.0750786
0.0738565
0.0718365
0.0683758
0.0634686
0.0514576
0.0762859
0.0763279
0.0760156
0.0758918
0.0758499
0.0758484
0.0758874
0.0760088
0.076319
0.0762716
0.0758462
0.0758291
0.0757957
0.0757981
0.0757829
0.0757813
0.0757935
0.0757885
0.0758193
0.0758329
0.0756935
0.0755066
0.0755915
0.0756476
0.075649
0.0756472
0.0756423
0.0755832
0.0754953
0.0756789
0.0756398
0.0753984
0.0754963
0.0755243
0.0755216
0.0755194
0.0755178
0.0754861
0.0753846
0.0756225
0.0755649
0.0753533
0.075454
0.0754472
0.0754412
0.0754385
0.075439
0.0754413
0.075336
0.0755436
0.075477
0.0753054
0.0754089
0.0753859
0.0753861
0.0753827
0.0753755
0.0753928
0.0752835
0.0754501
0.0754017
0.0752585
0.0753559
0.0753249
0.0753328
0.0753285
0.0753115
0.0753352
0.0752306
0.0753672
0.0753438
0.0752218
0.0753071
0.0752692
0.0752807
0.0752752
0.0752519
0.0752803
0.075186
0.0752993
0.0752966
0.0751936
0.0752667
0.0752235
0.0752352
0.0752282
0.075201
0.0752318
0.0751472
0.0752395
0.0752561
0.0751692
0.0752317
0.0751855
0.0751958
0.0751867
0.0751563
0.0751862
0.0751091
0.0751823
0.0752226
0.0751471
0.0751993
0.0751518
0.0751592
0.0751474
0.0751138
0.0751405
0.0750693
0.0751263
0.0751964
0.0751285
0.07517
0.0751211
0.075124
0.0751087
0.0750718
0.0750937
0.0750272
0.0750715
0.0751774
0.0751143
0.075145
0.0750939
0.0750905
0.0750705
0.0750296
0.0750455
0.0749823
0.0750165
0.0751661
0.0751053
0.0751248
0.0750702
0.0750588
0.0750326
0.0749867
0.0749948
0.0749333
0.0749589
0.0751635
0.0751025
0.0751098
0.0750499
0.0750285
0.0749943
0.0749417
0.0749402
0.0748784
0.0748959
0.0751709
0.0751071
0.0751005
0.075033
0.0749991
0.0749546
0.074893
0.0748799
0.0748153
0.0748248
0.0751897
0.0751206
0.0750979
0.0750196
0.0749702
0.0749121
0.0748386
0.0748114
0.0747412
0.0747426
0.0752217
0.0751447
0.0751027
0.0750097
0.074941
0.0748655
0.0747762
0.0747315
0.0746522
0.0746447
0.0752683
0.0751812
0.0751158
0.0750032
0.0749106
0.0748125
0.0747025
0.0746359
0.0745431
0.0745254
0.0753306
0.0752319
0.075138
0.075
0.0748776
0.0747507
0.0746132
0.0745189
0.0744068
0.0743767
0.0754087
0.0752983
0.0751697
0.0749996
0.0748405
0.0746767
0.074503
0.0743727
0.0742332
0.0741872
0.0755011
0.075381
0.0752116
0.0750016
0.0747974
0.0745867
0.0743649
0.0741866
0.0740081
0.0739404
0.0756045
0.0754791
0.0752637
0.0750057
0.0747468
0.0744761
0.0741901
0.0739459
0.0737105
0.0736114
0.0757131
0.0755897
0.0753266
0.0750123
0.0746877
0.0743409
0.073968
0.0736306
0.0733092
0.0731615
0.07582
0.0757069
0.0754003
0.0750239
0.074622
0.0741788
0.0736875
0.0732135
0.0727555
0.0725256
0.0759175
0.075823
0.0754864
0.0750472
0.074557
0.0739928
0.0733384
0.072659
0.0719715
0.0715894
0.0759992
0.0759302
0.075588
0.0750968
0.0745125
0.0738002
0.0729221
0.0719282
0.0708326
0.0701182
0.0760638
0.0760219
0.0757092
0.0751966
0.0745263
0.0736408
0.0724576
0.0709779
0.0691432
0.0676151
0.0761141
0.0760947
0.0758572
0.0753942
0.0746841
0.0736207
0.0720507
0.0698227
0.0666968
0.0626104
0.0761527
0.0761433
0.0760382
0.0757399
0.0750878
0.0738683
0.0718506
0.0683909
0.063483
0.0514642
0.0763221
0.0763665
0.0760557
0.0759322
0.0758904
0.0758889
0.0759278
0.0760489
0.0763576
0.0763079
0.0758581
0.0758427
0.0758094
0.0758118
0.0757966
0.075795
0.0758071
0.0758021
0.075833
0.0758449
0.0756898
0.0755039
0.0755884
0.0756443
0.0756459
0.075644
0.075639
0.0755801
0.0754927
0.0756752
0.0756377
0.075398
0.0754962
0.0755246
0.0755222
0.07552
0.0755181
0.0754861
0.0753842
0.0756203
0.0755649
0.0753544
0.0754559
0.0754498
0.0754444
0.0754417
0.0754417
0.0754432
0.0753372
0.0755436
0.075474
0.075301
0.0754041
0.0753817
0.0753824
0.0753789
0.0753714
0.0753879
0.0752791
0.0754472
0.0753947
0.0752477
0.0753432
0.0753124
0.0753203
0.075316
0.075299
0.0753224
0.0752197
0.0753605
0.0753344
0.0752074
0.07529
0.0752521
0.0752632
0.0752577
0.0752348
0.0752631
0.0751714
0.0752902
0.0752862
0.0751774
0.0752477
0.0752045
0.0752156
0.0752086
0.0751821
0.075213
0.0751311
0.0752287
0.0752447
0.0751523
0.075212
0.0751658
0.0751752
0.0751661
0.0751367
0.0751668
0.0750922
0.0751704
0.0752104
0.0751303
0.0751797
0.0751321
0.0751385
0.0751266
0.0750941
0.0751209
0.0750523
0.075114
0.0751841
0.0751123
0.0751513
0.0751022
0.0751039
0.0750884
0.0750526
0.0750746
0.0750109
0.0750588
0.0751656
0.0750992
0.0751275
0.0750762
0.0750715
0.0750513
0.0750116
0.0750274
0.074967
0.0750037
0.0751554
0.0750915
0.0751085
0.0750539
0.0750411
0.0750148
0.07497
0.074978
0.0749191
0.0749464
0.075154
0.0750901
0.0750947
0.0750351
0.0750124
0.074978
0.0749265
0.0749248
0.0748653
0.0748842
0.0751627
0.0750962
0.075087
0.0750198
0.0749847
0.0749399
0.0748792
0.0748658
0.0748034
0.0748142
0.0751829
0.0751114
0.0750862
0.0750082
0.0749575
0.0748992
0.0748265
0.0747988
0.0747305
0.074733
0.0752165
0.0751375
0.0750931
0.0750003
0.0749303
0.0748543
0.0747658
0.0747205
0.0746429
0.0746363
0.0752651
0.0751765
0.0751087
0.0749961
0.074902
0.0748035
0.0746939
0.0746267
0.0745353
0.0745183
0.0753299
0.0752302
0.0751337
0.0749955
0.0748716
0.0747441
0.0746069
0.0745118
0.0744007
0.0743711
0.0754111
0.0753001
0.0751689
0.0749983
0.0748375
0.074673
0.0744993
0.0743681
0.0742292
0.0741836
0.0755069
0.0753868
0.0752148
0.0750041
0.0747982
0.0745863
0.0743644
0.0741851
0.0740068
0.0739393
0.0756135
0.075489
0.0752717
0.0750127
0.0747519
0.0744799
0.0741935
0.0739482
0.0737128
0.0736137
0.0757243
0.075603
0.0753395
0.0750243
0.0746978
0.0743494
0.073976
0.0736373
0.0733158
0.0731682
0.0758314
0.0757217
0.0754178
0.0750412
0.0746373
0.0741921
0.0737
0.073225
0.0727671
0.0725374
0.0759259
0.0758361
0.0755066
0.0750688
0.0745762
0.0740094
0.073354
0.072674
0.0719874
0.0716063
0.076001
0.0759374
0.075607
0.0751187
0.0745307
0.0738146
0.072935
0.0719414
0.0708483
0.0701362
0.0760567
0.0760198
0.0757198
0.0752091
0.0745323
0.0736405
0.0724548
0.0709759
0.069146
0.0676222
0.0760986
0.0760826
0.0758484
0.0753782
0.0746557
0.0735818
0.0720058
0.069777
0.0666551
0.0625752
0.0761309
0.0761202
0.0759911
0.0756643
0.0749903
0.0737546
0.0717248
0.0682573
0.0633476
0.0513388
0.0764411
0.0764834
0.0761772
0.0760546
0.0760131
0.0760116
0.0760502
0.0761704
0.0764746
0.0764271
0.075854
0.0758345
0.0758062
0.0758081
0.075793
0.0757914
0.0758035
0.0757989
0.0758248
0.0758408
0.0756399
0.0754474
0.0755333
0.0755869
0.0755883
0.0755864
0.0755815
0.0755249
0.0754361
0.0756251
0.075608
0.0753685
0.0754681
0.0754944
0.0754923
0.07549
0.0754878
0.0754579
0.0753549
0.0755903
0.0755597
0.075356
0.0754599
0.0754535
0.0754489
0.0754461
0.0754453
0.0754471
0.0753388
0.0755381
0.0754814
0.0753176
0.0754226
0.0754011
0.0754023
0.0753989
0.0753906
0.0754063
0.0752954
0.0754544
0.0754089
0.0752719
0.0753687
0.0753393
0.0753475
0.0753431
0.0753259
0.0753478
0.0752436
0.0753745
0.0753534
0.0752369
0.0753212
0.0752851
0.0752963
0.0752907
0.0752677
0.0752942
0.0752009
0.0753091
0.0753081
0.0752098
0.0752823
0.0752413
0.0752525
0.0752454
0.0752189
0.0752472
0.0751635
0.0752512
0.0752678
0.0751851
0.0752468
0.0752033
0.075213
0.0752039
0.0751743
0.0752012
0.0751248
0.0751948
0.0752329
0.0751622
0.0752135
0.0751686
0.0751751
0.0751633
0.0751305
0.0751542
0.0750836
0.0751385
0.0752051
0.0751427
0.0751838
0.075137
0.0751386
0.0751231
0.075087
0.0751062
0.0750405
0.0750827
0.0751853
0.0751276
0.0751582
0.0751088
0.0751039
0.0750836
0.0750436
0.0750567
0.0749947
0.0750264
0.075174
0.0751176
0.0751369
0.0750838
0.075071
0.0750446
0.0749995
0.0750049
0.0749448
0.0749677
0.0751716
0.0751141
0.075121
0.0750624
0.0750398
0.0750053
0.0749533
0.0749494
0.0748891
0.0749043
0.0751794
0.0751184
0.0751115
0.0750448
0.0750099
0.0749646
0.0749037
0.0748883
0.0748255
0.0748333
0.0751991
0.0751323
0.0751093
0.0750312
0.0749808
0.0749218
0.0748488
0.0748194
0.074751
0.0747514
0.0752328
0.0751577
0.0751155
0.0750219
0.0749521
0.0748753
0.0747864
0.0747397
0.0746621
0.0746542
0.0752824
0.0751969
0.0751312
0.0750172
0.0749231
0.0748235
0.0747135
0.0746451
0.0745539
0.0745363
0.0753493
0.0752522
0.0751576
0.0750173
0.0748931
0.0747641
0.0746264
0.0745302
0.0744196
0.07439
0.075434
0.0753252
0.0751957
0.0750223
0.0748606
0.0746943
0.0745199
0.0743876
0.0742495
0.0742044
0.0755346
0.0754166
0.0752463
0.0750322
0.0748246
0.0746107
0.0743876
0.0742073
0.0740301
0.0739637
0.0756469
0.0755251
0.0753097
0.075047
0.0747838
0.0745092
0.0742213
0.0739751
0.0737412
0.0736439
0.0757628
0.0756457
0.0753857
0.0750674
0.0747376
0.074386
0.0740106
0.0736711
0.073352
0.0732072
0.0758716
0.0757693
0.075473
0.0750952
0.0746871
0.0742376
0.0737431
0.0732678
0.0728141
0.0725888
0.0759615
0.0758835
0.0755698
0.0751343
0.0746359
0.074063
0.0734047
0.0727256
0.0720468
0.0716737
0.0760236
0.075976
0.075673
0.0751904
0.0745932
0.0738677
0.0729845
0.0719941
0.0709159
0.0702189
0.0760577
0.0760392
0.0757743
0.0752665
0.0745731
0.0736668
0.0724763
0.071004
0.0692012
0.0677068
0.0760694
0.076068
0.0758524
0.0753655
0.0746142
0.0735202
0.0719377
0.0697164
0.0666323
0.0625913
0.0760751
0.0760549
0.0758726
0.0754779
0.0747619
0.0735106
0.0714779
0.068014
0.063135
0.0511077
0.0767751
0.0768115
0.0764827
0.0763646
0.0763245
0.076323
0.0763602
0.0764759
0.0768027
0.0767615
0.0759144
0.0758677
0.0758333
0.0758402
0.075825
0.0758234
0.0758356
0.075826
0.0758579
0.075901
0.0755759
0.0753602
0.0754459
0.0755009
0.0755018
0.0755
0.0754956
0.0754375
0.0753487
0.0755607
0.0755218
0.0752651
0.0753667
0.0753942
0.0753924
0.0753902
0.0753877
0.0753566
0.0752515
0.0755033
0.075472
0.0752497
0.0753537
0.0753496
0.0753457
0.0753429
0.0753414
0.0753409
0.0752322
0.0754497
0.0753965
0.0752129
0.0753146
0.0752949
0.0752957
0.0752922
0.0752845
0.0752981
0.0751903
0.0753694
0.075331
0.0751762
0.0752681
0.07524
0.0752462
0.0752418
0.0752265
0.075247
0.0751475
0.0752965
0.0752842
0.0751533
0.0752324
0.0751976
0.075206
0.0752004
0.0751802
0.0752052
0.0751168
0.0752393
0.0752475
0.0751372
0.0752043
0.0751648
0.0751731
0.0751658
0.0751424
0.0751691
0.0750905
0.0751892
0.0752149
0.0751217
0.0751777
0.0751359
0.0751426
0.0751332
0.0751067
0.0751319
0.0750612
0.0751403
0.0751867
0.0751067
0.0751523
0.0751089
0.0751126
0.0751006
0.0750708
0.0750926
0.075028
0.0750909
0.0751646
0.0750938
0.0751296
0.0750844
0.0750836
0.0750679
0.0750348
0.0750519
0.0749917
0.0750406
0.0751499
0.0750847
0.0751107
0.0750626
0.0750557
0.0750354
0.0749982
0.0750094
0.0749519
0.0749886
0.0751431
0.0750805
0.0750959
0.0750441
0.0750293
0.0750027
0.0749601
0.0749639
0.0749073
0.0749337
0.0751448
0.0750825
0.0750863
0.0750287
0.0750039
0.074969
0.0749192
0.074914
0.0748562
0.0748741
0.0751567
0.075092
0.0750826
0.0750167
0.0749793
0.0749337
0.0748745
0.0748581
0.0747964
0.074807
0.0751807
0.0751112
0.075086
0.0750084
0.0749554
0.0748958
0.0748242
0.0747939
0.0747257
0.0747289
0.0752191
0.0751422
0.0750978
0.0750046
0.0749319
0.0748542
0.0747662
0.0747187
0.0746407
0.0746356
0.075274
0.0751879
0.0751196
0.0750056
0.0749083
0.0748075
0.074698
0.0746286
0.0745365
0.0745216
0.0753474
0.0752508
0.0751529
0.0750122
0.0748841
0.0747537
0.0746158
0.0745184
0.0744067
0.0743798
0.0754402
0.0753334
0.0751993
0.0750248
0.0748588
0.0746904
0.0745153
0.0743813
0.0742421
0.0741996
0.0755511
0.0754368
0.0752603
0.0750442
0.0748316
0.0746148
0.0743906
0.0742079
0.0740298
0.073966
0.0756755
0.0755596
0.075337
0.0750715
0.0748024
0.0745241
0.0742344
0.0739849
0.0737507
0.0736563
0.0758038
0.0756959
0.0754299
0.0751084
0.0747719
0.0744152
0.0740373
0.0736941
0.0733758
0.0732345
0.0759205
0.0758338
0.0755391
0.0751592
0.0747428
0.0742863
0.0737886
0.0733093
0.0728589
0.0726393
0.0760087
0.0759552
0.0756636
0.0752303
0.0747206
0.0741372
0.0734747
0.0727929
0.0721234
0.0717607
0.0760592
0.0760421
0.075797
0.0753278
0.0747138
0.0739711
0.073082
0.0720929
0.0710387
0.0703643
0.0760791
0.0760989
0.0759266
0.0754426
0.074722
0.0737868
0.0725877
0.0711255
0.0693823
0.0679434
0.0760612
0.0760991
0.0759768
0.0755092
0.0747184
0.0735816
0.0719866
0.0697876
0.066835
0.0629512
0.0760248
0.0759993
0.0758032
0.0753441
0.0745479
0.0732438
0.0712005
0.0677784
0.0631273
0.0515481
0.0764933
0.0767725
0.0764366
0.0763161
0.0762785
0.0762769
0.0763117
0.0764295
0.0767628
0.0764788
0.075928
0.0759125
0.0758507
0.0758533
0.0758399
0.0758383
0.0758486
0.0758431
0.0759021
0.075914
0.0758105
0.0755739
0.0756363
0.0756848
0.0756868
0.0756849
0.0756793
0.0756277
0.0755621
0.0757949
0.0757835
0.0755197
0.075604
0.0756321
0.0756321
0.0756297
0.0756253
0.0755934
0.075505
0.075765
0.0756892
0.0754698
0.0755552
0.0755583
0.0755557
0.0755528
0.0755498
0.0755421
0.0754519
0.0756672
0.0755686
0.0753938
0.075476
0.0754659
0.0754654
0.0754619
0.0754551
0.0754592
0.0753722
0.075542
0.0754688
0.0753274
0.0754022
0.0753843
0.0753865
0.0753821
0.0753704
0.0753805
0.0753
0.0754353
0.0753949
0.0752794
0.0753443
0.0753206
0.0753237
0.0753181
0.0753027
0.0753167
0.0752437
0.0753517
0.0753361
0.0752411
0.0752962
0.0752682
0.0752706
0.0752632
0.0752448
0.0752607
0.0751946
0.0752802
0.0752862
0.0752068
0.0752532
0.0752216
0.0752223
0.0752126
0.075191
0.0752067
0.0751471
0.0752142
0.0752444
0.0751761
0.0752143
0.0751795
0.0751777
0.0751653
0.0751407
0.0751537
0.0750993
0.0751518
0.0752119
0.0751506
0.07518
0.0751424
0.0751373
0.0751214
0.0750933
0.0751019
0.0750504
0.0750921
0.0751889
0.0751314
0.0751518
0.0751108
0.0751008
0.0750801
0.0750476
0.0750507
0.0750001
0.0750332
0.0751754
0.0751192
0.0751301
0.0750844
0.0750674
0.0750401
0.0750018
0.0749983
0.0749473
0.0749728
0.0751721
0.0751149
0.0751153
0.0750627
0.0750364
0.0750007
0.0749548
0.074943
0.0748899
0.0749085
0.0751804
0.0751198
0.0751078
0.075046
0.0750076
0.0749609
0.0749051
0.0748829
0.0748257
0.0748376
0.0752021
0.0751359
0.0751089
0.0750345
0.0749808
0.0749201
0.0748511
0.074816
0.0747522
0.074757
0.0752396
0.0751656
0.07512
0.075029
0.0749558
0.0748769
0.0747909
0.0747394
0.0746659
0.0746625
0.0752954
0.075212
0.0751426
0.07503
0.0749323
0.07483
0.0747219
0.0746494
0.074562
0.074549
0.0753718
0.0752782
0.0751787
0.0750385
0.0749099
0.0747779
0.0746408
0.0745413
0.0744343
0.0744094
0.0754695
0.0753671
0.0752304
0.0750554
0.0748887
0.0747186
0.0745437
0.0744084
0.0742741
0.0742339
0.0755869
0.0754797
0.0752996
0.0750819
0.0748685
0.0746501
0.0744255
0.0742421
0.0740696
0.0740084
0.0757172
0.0756131
0.0753876
0.0751199
0.0748501
0.0745704
0.0742801
0.0740309
0.0738033
0.0737121
0.0758474
0.0757574
0.0754946
0.0751724
0.0748355
0.0744781
0.0741
0.0737584
0.0734489
0.0733118
0.0759584
0.075893
0.0756186
0.0752446
0.0748289