/*--------------------------------*- C++ -*----------------------------------*\
| =========                 |                                                 |
| \\      /  F ield         | OpenFOAM: The Open Source CFD Toolbox           |
|  \\    /   O peration     | Version:  4.1                                   |
|   \\  /    A nd           | Web:      www.OpenFOAM.org                      |
|    \\/     M anipulation  |                                                 |
\*---------------------------------------------------------------------------*/
FoamFile
{
    version     2.0;
    format      ascii;
    class       surfaceScalarField;
    location    "1300";
    object      phi;
}
// * * * * * * * * * * * * * * * * * * * * * * * * * * * * * * * * * * * * * //

dimensions      [0 3 -1 0 0 0 0];

internalField   nonuniform List<scalar> 
33700
(
4.95993e-05
0.000900877
4.95274e-05
2.31125e-05
0.000971166
5.53232e-05
8.42242e-06
0.000957306
5.73857e-05
3.1439e-06
0.000948128
5.71522e-05
8.44158e-08
0.00094568
5.7381e-05
-2.98187e-06
0.000945688
5.73801e-05
-8.27577e-06
0.000948148
5.7149e-05
-2.29864e-05
0.000957335
5.73771e-05
-4.94996e-05
0.00097121
5.53042e-05
0.000900914
4.95858e-05
3.13058e-05
0.000838424
3.11468e-05
2.37777e-05
0.000939512
3.91786e-05
1.34217e-05
0.000926697
4.09597e-05
6.13106e-06
0.000915133
4.02797e-05
2.14175e-07
0.000910928
4.06637e-05
-5.71699e-06
0.000910955
4.06607e-05
-1.3037e-05
0.0009152
4.02652e-05
-2.33672e-05
0.000926776
4.08851e-05
-3.08783e-05
0.00093959
3.91263e-05
0.00083879
3.12414e-05
1.62936e-05
0.000806088
1.60338e-05
1.68546e-05
0.000915262
2.36758e-05
1.17526e-05
0.00090722
2.45629e-05
6.05908e-06
0.000896763
2.40459e-05
3.80021e-07
0.00089206
2.45306e-05
-5.33091e-06
0.000892123
2.45283e-05
-1.10846e-05
0.000896929
2.40118e-05
-1.6211e-05
0.000907423
2.44668e-05
-1.57043e-05
0.000915468
2.3604e-05
0.000806987
1.60918e-05
8.89796e-06
0.00078866
8.51e-06
1.20005e-05
0.000897967
1.41679e-05
9.61925e-06
0.000895666
1.3906e-05
5.25746e-06
0.000886858
1.42364e-05
5.87767e-07
0.000881861
1.48372e-05
-4.13538e-06
0.000881977
1.48393e-05
-8.60284e-06
0.000887178
1.41908e-05
-1.10892e-05
0.000896077
1.38104e-05
-8.20278e-06
0.000898337
1.42267e-05
0.000790164
8.61143e-06
5.45943e-06
0.000778267
4.90311e-06
9.18795e-06
0.000885259
8.94349e-06
8.3706e-06
0.000889067
7.37575e-06
4.80238e-06
0.000881699
8.68293e-06
8.54366e-07
0.000876412
9.35243e-06
-3.15864e-06
0.0008766
9.3462e-06
-6.89763e-06
0.000882227
8.64953e-06
-7.91155e-06
0.000889821
7.23735e-06
-4.57277e-06
0.000885902
9.07238e-06
0.000780627
4.95183e-06
4.29171e-06
0.00077042
3.51697e-06
7.30231e-06
0.000875384
6.82156e-06
7.50976e-06
0.000884984
3.82755e-06
4.56705e-06
0.000878655
5.9353e-06
1.19018e-06
0.000873254
6.48147e-06
-2.25962e-06
0.000873528
6.46898e-06
-5.43254e-06
0.000879439
5.91258e-06
-5.55861e-06
0.000886192
3.71605e-06
-3.05802e-06
0.000876501
6.87189e-06
0.000774137
3.41856e-06
4.18738e-06
0.000763058
3.13519e-06
6.01159e-06
0.000867294
6.22176e-06
6.87965e-06
0.000882041
2.02687e-06
4.44585e-06
0.000876277
4.75958e-06
1.61625e-06
0.000870986
5.04339e-06
-1.29961e-06
0.000871368
5.02238e-06
-4.05599e-06
0.000877391
4.75489e-06
-3.71042e-06
0.000883814
1.99247e-06
-2.54008e-06
0.000868918
6.38225e-06
0.000768613
2.96993e-06
4.4588e-06
0.00075552
3.04461e-06
5.18811e-06
0.000860418
6.10768e-06
6.57582e-06
0.000879571
1.03829e-06
4.5206e-06
0.000873992
4.29206e-06
2.16238e-06
0.000869018
4.27632e-06
-3.09187e-07
0.000869549
4.2404e-06
-2.82401e-06
0.000875553
4.30728e-06
-2.18667e-06
0.000882101
1.03912e-06
-2.24008e-06
0.000862608
6.33525e-06
0.000763444
2.91355e-06
4.86309e-06
0.00074765
2.97649e-06
4.72981e-06
0.000854555
5.96432e-06
6.63045e-06
0.000877308
3.26307e-07
4.85899e-06
0.000871695
4.02931e-06
2.87372e-06
0.00086725
3.71266e-06
7.23693e-07
0.000867972
3.68663e-06
-1.66774e-06
0.000873832
4.07581e-06
-7.87674e-07
0.000880856
3.33385e-07
-1.86167e-06
0.00085744
6.21728e-06
0.00075863
2.93798e-06
5.46707e-06
0.000739184
2.97632e-06
4.53922e-06
0.000849646
5.81229e-06
7.05237e-06
0.000875109
-3.41978e-07
5.5065e-06
0.000869453
3.75863e-06
3.77931e-06
0.000865761
3.18569e-06
1.85633e-06
0.000866697
3.16743e-06
-4.65593e-07
0.000872265
3.85961e-06
6.72474e-07
0.000880006
-3.13339e-07
-1.41703e-06
0.000853451
6.05626e-06
0.000754171
3.02741e-06
6.17776e-06
0.000730087
2.89927e-06
5.11504e-06
0.000845151
5.53715e-06
7.95975e-06
0.000872943
-7.01055e-07
6.53587e-06
0.000867334
3.51965e-06
4.90937e-06
0.000864614
2.75054e-06
3.13511e-06
0.00086575
2.69881e-06
8.2181e-07
0.000870922
3.63447e-06
1.88068e-06
0.00087962
-6.94018e-07
-7.97099e-07
0.000850338
5.77041e-06
0.000750282
3.07599e-06
6.9713e-06
0.000720451
2.64456e-06
6.33074e-06
0.000840379
5.39389e-06
9.26402e-06
0.000870693
-7.0208e-07
7.95099e-06
0.000865284
3.34477e-06
6.47474e-06
0.00086369
2.3829e-06
4.82457e-06
0.000865089
2.29294e-06
2.29234e-06
0.000869928
3.50675e-06
2.99474e-06
0.000879701
-8.02979e-07
5.59926e-08
0.000847669
5.58792e-06
0.000747273
3.04858e-06
8.1278e-06
0.000709886
2.41468e-06
7.85021e-06
0.00083534
5.29565e-06
1.09638e-05
0.000868168
-6.06637e-07
9.8373e-06
0.000863125
3.26887e-06
8.63291e-06
0.000862725
2.15392e-06
7.00497e-06
0.000864664
2.03783e-06
4.10588e-06
0.000869349
3.46138e-06
4.46708e-06
0.000880176
-8.55374e-07
1.02323e-06
0.000845655
5.43619e-06
0.000745184
3.09499e-06
9.73923e-06
0.000697905
2.21701e-06
9.83522e-06
0.000830062
5.16075e-06
1.32863e-05
0.000865187
-4.88512e-07
1.23995e-05
0.000860751
3.24419e-06
1.13803e-05
0.000861683
2.04566e-06
9.68551e-06
0.000864463
1.88046e-06
6.46255e-06
0.000869104
3.45026e-06
6.41539e-06
0.000881055
-8.51987e-07
2.14977e-06
0.000844608
5.29069e-06
0.000744131
3.18472e-06
1.18925e-05
0.00068393
2.05696e-06
1.25321e-05
0.00082441
4.99059e-06
1.64306e-05
0.000861626
-3.55909e-07
1.58243e-05
0.000858121
3.21975e-06
1.49025e-05
0.000860589
2.00054e-06
1.31307e-05
0.000864462
1.75709e-06
9.52856e-06
0.000869246
3.44271e-06
8.84039e-06
0.000882528
-8.0463e-07
3.50646e-06
0.000844778
5.14035e-06
0.000744343
3.27622e-06
1.47147e-05
0.000667235
1.95444e-06
1.61595e-05
0.000818117
4.82752e-06
2.06208e-05
0.000857316
-1.69698e-07
2.03552e-05
0.000855152
3.21891e-06
1.95299e-05
0.000859377
2.02312e-06
1.76243e-05
0.000864661
1.69205e-06
1.34632e-05
0.000869938
3.45283e-06
1.18891e-05
0.000884803
-7.1908e-07
5.18782e-06
0.000846447
5.01033e-06
0.000746122
3.39166e-06
1.83814e-05
0.000646869
1.9604e-06
2.10217e-05
0.000810711
4.74635e-06
2.61712e-05
0.000852006
1.44546e-07
2.63185e-05
0.000851703
3.28743e-06
2.55977e-05
0.000857931
2.15289e-06
2.34528e-05
0.000865076
1.71587e-06
1.85265e-05
0.000871344
3.50518e-06
1.57782e-05
0.000888104
-5.71026e-07
7.32566e-06
0.000849956
4.92373e-06
0.000749832
3.59977e-06
2.30946e-05
0.000621591
2.16144e-06
2.75232e-05
0.000801428
4.83623e-06
3.34872e-05
0.000845376
6.51056e-07
3.41314e-05
0.000847572
3.47463e-06
3.3503e-05
0.000856114
2.434e-06
3.09789e-05
0.000865717
1.87078e-06
2.50708e-05
0.000873602
3.63681e-06
2.0786e-05
0.000892671
-2.97994e-07
1.00874e-05
0.000855703
4.93324e-06
0.000755949
3.9556e-06
2.90629e-05
0.000589826
2.68225e-06
3.61585e-05
0.000789111
5.20691e-06
4.30792e-05
0.000837026
1.41684e-06
4.43098e-05
0.000842476
3.85395e-06
4.37547e-05
0.000853734
2.925e-06
4.07076e-05
0.000866539
2.21542e-06
3.35388e-05
0.000876845
3.9136e-06
2.72749e-05
0.000898734
1.87103e-07
1.36931e-05
0.000864163
5.10511e-06
0.000765105
4.52424e-06
3.64625e-05
0.000549629
3.71588e-06
4.74855e-05
0.000772038
6.03592e-06
5.55835e-05
0.000826366
2.54998e-06
5.75043e-05
0.000836019
4.52604e-06
5.70145e-05
0.000850504
3.71042e-06
5.3304e-05
0.000867406
2.83363e-06
4.45413e-05
0.000881185
4.41278e-06
3.57273e-05
0.000906582
9.54189e-07
1.84244e-05
0.000875928
5.52304e-06
0.000778118
5.39962e-06
4.53274e-05
0.000498801
5.48375e-06
6.21134e-05
0.000747691
7.54894e-06
7.17799e-05
0.000812469
4.2208e-06
7.45154e-05
0.00082764
5.63489e-06
7.41124e-05
0.000845982
4.91654e-06
6.96327e-05
0.000868021
3.85548e-06
5.89181e-05
0.000886643
5.2467e-06
4.68211e-05
0.000916579
2.08867e-06
2.46841e-05
0.000891752
6.29991e-06
0.00079608
6.71226e-06
5.54331e-05
0.000435107
8.24329e-06
8.0503e-05
0.000712575
1.00338e-05
9.25317e-05
0.00079379
6.6403e-06
9.62841e-05
0.000816505
7.37298e-06
9.60842e-05
0.000839463
6.70953e-06
9.08405e-05
0.000867804
5.45231e-06
7.78221e-05
0.000893068
6.58314e-06
6.15344e-05
0.000929115
3.74113e-06
3.30562e-05
0.000912611
7.60691e-06
0.000820474
8.65325e-06
6.60579e-05
0.000356894
1.21341e-05
0.000102636
0.000662239
1.37437e-05
0.000118621
0.00076768
1.01126e-05
0.00012391
0.000801217
9.98917e-06
0.00012424
0.000829809
9.31377e-06
0.000118444
0.000865712
7.87747e-06
0.000102868
0.000899964
8.67024e-06
8.13158e-05
0.000944519
6.13835e-06
4.44565e-05
0.000939774
9.68684e-06
0.000853431
1.14921e-05
7.56083e-05
0.00026431
1.69472e-05
0.000127285
0.000591817
1.8727e-05
0.000150408
0.000729607
1.49356e-05
0.000158614
0.000779135
1.38618e-05
0.000160211
0.000815136
1.30641e-05
0.000154466
0.000859985
1.14599e-05
0.000136386
0.000906189
1.18453e-05
0.000108394
0.000962901
9.60103e-06
6.03099e-05
0.000974946
1.29043e-05
0.000898119
1.56186e-05
8.12146e-05
0.00016133
2.17191e-05
0.000151101
0.000497397
2.45094e-05
0.000186972
0.000672327
2.13896e-05
0.000201455
0.00074509
1.95446e-05
0.000206002
0.000792159
1.84152e-05
0.000201599
0.000847738
1.66375e-05
0.000181758
0.000909449
1.65723e-05
0.000146337
0.000983712
1.4605e-05
8.32251e-05
0.00102028
1.77751e-05
0.000959726
2.16237e-05
7.78388e-05
5.95785e-05
2.38347e-05
0.000167235
0.000378379
2.95867e-05
0.000224718
0.000585172
2.96451e-05
0.000252701
0.000689116
2.79674e-05
0.000264119
0.000754561
2.61573e-05
0.00026365
0.000824216
2.39776e-05
0.000244045
0.000905621
2.34252e-05
0.000200975
0.00100503
2.17554e-05
0.000117455
0.00107878
2.50347e-05
0.00104684
3.03583e-05
5.53024e-05
-1.83358e-05
2.2492e-05
0.000165361
0.000236426
3.18412e-05
0.000256207
0.000455216
3.9074e-05
0.000309671
0.000595453
4.01643e-05
0.000336242
0.000690318
3.76447e-05
0.000345179
0.000780833
3.44256e-05
0.000330555
0.000887049
3.31915e-05
0.000282343
0.00102139
3.18722e-05
0.000173944
0.00115138
3.58317e-05
0.00117754
4.32828e-05
5.97607e-06
-5.48704e-05
3.04358e-05
0.00013593
6.64204e-05
3.99921e-05
0.00026945
0.000269067
5.25844e-05
0.000365317
0.000442468
5.70818e-05
0.000423367
0.000578185
5.40515e-05
0.000453133
0.000701956
4.90912e-05
0.000452886
0.000840671
4.66276e-05
0.000406448
0.00102217
4.56704e-05
0.000269965
0.00123661
5.12912e-05
0.00138522
6.23044e-05
-4.223e-07
-8.86673e-05
3.42318e-05
0.000100631
-8.62836e-05
5.16363e-05
0.000248011
4.88043e-05
7.28613e-05
0.000389038
0.000218216
8.31994e-05
0.000503905
0.000383305
7.99917e-05
0.000584115
0.000550274
7.14591e-05
0.000626415
0.000732526
6.58337e-05
0.000598853
0.000985454
6.42806e-05
0.00047956
0.0012824
7.34969e-05
0.00177423
9.05485e-05
8.10337e-05
9.29129e-06
-0.000178915
0.000182571
2.67898e-05
-0.000214542
0.000288714
6.14097e-05
-0.000118702
0.00040903
9.09088e-05
7.00425e-06
0.00055504
0.00010272
0.000134557
0.000706767
9.98782e-05
0.000298637
0.000848837
9.16264e-05
0.000498785
0.000905197
8.7404e-05
0.000841635
0.000898043
9.56954e-05
0.0011938
0.000128836
0.00254341
5.53822e-05
0.0009711
2.3041e-05
2.07304e-05
0.00106929
2.06768e-05
6.56114e-06
0.00105019
2.13632e-05
2.33045e-06
0.00103984
2.15342e-05
6.09777e-08
0.00103799
2.1653e-05
-2.21364e-06
0.001038
2.16526e-05
-6.46372e-06
0.00103986
2.15305e-05
-2.07015e-05
0.00105025
2.1355e-05
-5.5609e-05
0.00106952
2.06835e-05
0.000970883
2.30912e-05
3.9326e-05
0.000939322
2.35888e-05
2.26531e-05
0.00110265
2.24783e-05
1.28957e-05
0.00107807
2.28169e-05
5.84346e-06
0.00106407
2.30908e-05
1.88394e-07
0.00106102
2.32757e-05
-5.48769e-06
0.00106105
2.32752e-05
-1.25916e-05
0.00106415
2.30741e-05
-2.241e-05
0.00107816
2.27845e-05
-3.891e-05
0.00110262
2.25155e-05
0.000939568
2.36409e-05
2.3923e-05
0.000914884
1.65426e-05
1.72204e-05
0.0011161
1.69176e-05
1.14464e-05
0.00109214
1.62576e-05
5.71016e-06
0.00107761
1.62343e-05
3.74759e-07
0.00107448
1.64037e-05
-4.99084e-06
0.00107454
1.63969e-05
-1.0827e-05
0.00107777
1.62155e-05
-1.67233e-05
0.0010923
1.62087e-05
-2.3421e-05
0.00111596
1.6952e-05
0.000915677
1.6558e-05
1.45355e-05
0.000897312
1.15432e-05
1.45166e-05
0.00111621
1.40708e-05
9.51929e-06
0.00109819
1.28492e-05
4.70563e-06
0.00108403
1.26188e-05
5.80075e-07
0.00108059
1.28368e-05
-3.57433e-06
0.00108069
1.28263e-05
-8.51799e-06
0.0010843
1.25937e-05
-1.37219e-05
0.00109851
1.27964e-05
-1.39233e-05
0.00111628
1.40984e-05
0.000898831
1.15321e-05
9.45854e-06
0.000884214
8.53801e-06
1.32258e-05
0.00110878
1.2606e-05
8.60156e-06
0.00109911
1.10667e-05
4.29296e-06
0.00108606
1.09453e-05
8.29134e-07
0.00108215
1.12444e-05
-2.67661e-06
0.00108229
1.12361e-05
-7.13862e-06
0.00108648
1.09117e-05
-1.20886e-05
0.00109964
1.10504e-05
-8.46671e-06
0.00110904
1.26927e-05
0.000886873
8.43913e-06
7.52903e-06
0.000873791
6.40212e-06
1.21722e-05
0.00109961
1.13338e-05
7.87979e-06
0.00109781
9.40538e-06
4.19131e-06
0.00108614
9.52532e-06
1.1269e-06
0.00108185
9.82721e-06
-2.00698e-06
0.00108206
9.81649e-06
-5.90039e-06
0.00108678
9.4912e-06
-1.05416e-05
0.00109857
9.40925e-06
-5.92802e-06
0.00109986
1.1426e-05
0.000878121
6.23788e-06
7.1738e-06
0.00086494
4.79644e-06
1.14911e-05
0.00109112
1.03711e-05
7.29688e-06
0.00109602
7.98114e-06
4.20272e-06
0.00108561
8.35917e-06
1.50487e-06
0.00108104
8.52877e-06
-1.29449e-06
0.00108134
8.52061e-06
-4.66602e-06
0.00108655
8.33479e-06
-9.22512e-06
0.00109713
7.97479e-06
-5.09192e-06
0.00109169
1.04071e-05
0.000871333
4.65627e-06
7.37413e-06
0.000857033
3.55314e-06
1.12597e-05
0.00108354
9.77437e-06
7.07989e-06
0.0010943
6.9047e-06
4.41898e-06
0.00108497
7.56519e-06
1.98825e-06
0.0010802
7.51215e-06
-5.72413e-07
0.0010806
7.50374e-06
-3.59324e-06
0.00108629
7.55504e-06
-8.20791e-06
0.00109588
6.8756e-06
-4.81651e-06
0.00108488
9.72738e-06
0.00086593
3.48757e-06
7.63841e-06
0.000849803
2.53574e-06
1.13597e-05
0.00107635
9.39255e-06
7.27136e-06
0.00109259
6.09138e-06
4.89792e-06
0.0010843
7.038e-06
2.60424e-06
0.00107943
6.74272e-06
1.5382e-07
0.00107997
6.72838e-06
-2.68808e-06
0.00108613
7.04342e-06
-7.37782e-06
0.00109485
6.02681e-06
-4.477e-06
0.00107886
9.3128e-06
0.00086183
2.54403e-06
8.02115e-06
0.000843098
1.62137e-06
1.20344e-05
0.00106869
9.42196e-06
7.84549e-06
0.00109092
5.47211e-06
5.6266e-06
0.00108356
6.67451e-06
3.41523e-06
0.00107865
6.13278e-06
9.87563e-07
0.00107942
6.10378e-06
-1.84145e-06
0.00108609
6.68153e-06
-6.81727e-06
0.00109412
5.35546e-06
-3.9988e-06
0.00107278
9.28379e-06
0.00085914
1.69966e-06
8.45742e-06
0.000836242
1.25566e-06
1.23802e-05
0.00106133
8.93563e-06
8.65001e-06
0.00108899
4.92177e-06
6.58754e-06
0.00108256
6.53399e-06
4.49763e-06
0.00107764
5.79981e-06
2.07315e-06
0.00107883
5.66433e-06
-8.46983e-07
0.00108618
6.41636e-06
-5.70022e-06
0.00109349
4.74565e-06
-3.27814e-06
0.00106725
8.85371e-06
0.000857634
1.28386e-06
9.23046e-06
0.000828365
1.24799e-06
1.24846e-05
0.00105546
7.9623e-06
9.62699e-06
0.00108671
4.38475e-06
7.84585e-06
0.00108128
6.35952e-06
5.89201e-06
0.00107652
5.41169e-06
3.4525e-06
0.00107828
5.2348e-06
5.09437e-07
0.0010863
6.29311e-06
-3.94427e-06
0.00109295
4.15601e-06
-2.53661e-06
0.00106342
7.97393e-06
0.000856895
1.22956e-06
1.0334e-05
0.000819275
1.12746e-06
1.33248e-05
0.00105033
7.39782e-06
1.11058e-05
0.00108437
3.91302e-06
9.52927e-06
0.00108006
6.02407e-06
7.6519e-06
0.00107568
4.82901e-06
5.20362e-06
0.00107797
4.75037e-06
2.18736e-06
0.00108658
6.14812e-06
-2.22419e-06
0.00109287
3.59214e-06
-1.68461e-06
0.00106086
7.42104e-06
0.000857131
1.15221e-06
1.17404e-05
0.000808801
9.07579e-07
1.48352e-05
0.00104528
7.07133e-06
1.31787e-05
0.0010819
3.59926e-06
1.17767e-05
0.00107884
5.82866e-06
9.97218e-06
0.001075
4.48647e-06
7.48849e-06
0.00107789
4.40432e-06
4.24242e-06
0.00108731
5.93256e-06
-3.63301e-07
0.00109349
3.10081e-06
-6.61689e-07
0.00105935
7.06613e-06
0.000858619
1.01326e-06
1.35252e-05
0.000796555
7.36163e-07
1.70294e-05
0.00103987
6.85417e-06
1.59672e-05
0.00107911
3.45017e-06
1.47602e-05
0.00107745
5.7805e-06
1.30354e-05
0.00107434
4.34676e-06
1.04287e-05
0.00107805
4.16314e-06
6.82263e-06
0.00108853
5.79387e-06
1.88475e-06
0.00109481
2.78443e-06
5.89713e-07
0.00105898
6.7778e-06
0.000861493
9.69663e-07
1.58316e-05
0.000781981
6.56191e-07
2.00456e-05
0.00103372
6.73037e-06
1.96627e-05
0.00107589
3.40105e-06
1.86785e-05
0.00107584
5.77126e-06
1.70193e-05
0.00107373
4.26259e-06
1.42127e-05
0.00107853
3.9895e-06
1.01357e-05
0.00109027
5.75554e-06
4.701e-06
0.00109691
2.58304e-06
2.13887e-06
0.00105999
6.52635e-06
0.000865975
1.02835e-06
1.88384e-05
0.000764359
7.06227e-07
2.41161e-05
0.00102643
6.72201e-06
2.4515e-05
0.00107211
3.49215e-06
2.37968e-05
0.00107398
5.82871e-06
2.21796e-05
0.0010732
4.26075e-06
1.90981e-05
0.00107939
3.90459e-06
1.4415e-05
0.00109263
5.78894e-06
8.24437e-06
0.00109999
2.48628e-06
4.11223e-06
0.00106268
6.33705e-06
0.000872472
1.19597e-06
2.27372e-05
0.000742771
9.75878e-07
2.95342e-05
0.00101757
6.87115e-06
3.08522e-05
0.00106764
3.77168e-06
3.04551e-05
0.00107182
6.00344e-06
2.88584e-05
0.0010728
4.39976e-06
2.54212e-05
0.00108072
3.94415e-06
1.99472e-05
0.00109583
5.88645e-06
1.27449e-05
0.00110436
2.50607e-06
6.63701e-06
0.00106747
6.23156e-06
0.00088154
1.50678e-06
2.77131e-05
0.000716138
1.5677e-06
3.6685e-05
0.0010065
7.27464e-06
3.90977e-05
0.0010623
4.31565e-06
3.90907e-05
0.00106928
6.3686e-06
3.74982e-05
0.00107254
4.74279e-06
3.36109e-05
0.00108265
4.14759e-06
2.71337e-05
0.00110009
6.09877e-06
1.85104e-05
0.00111047
2.67665e-06
9.8658e-06
0.00107495
6.24051e-06
0.000893897
2.01659e-06
3.39632e-05
0.000683249
2.60987e-06
4.60908e-05
0.000992261
8.11948e-06
4.97924e-05
0.00105587
5.24849e-06
5.02505e-05
0.00106631
7.01255e-06
4.86613e-05
0.00107245
5.36862e-06
4.42244e-05
0.0010853
4.58618e-06
3.64912e-05
0.00110572
6.49227e-06
2.59587e-05
0.00111888
3.05401e-06
1.40352e-05
0.00108595
6.42796e-06
0.000910517
2.80027e-06
4.16025e-05
0.00064271
4.39089e-06
5.82193e-05
0.000973589
9.5803e-06
6.35669e-05
0.00104803
6.69191e-06
6.46116e-05
0.00106281
8.06664e-06
6.30689e-05
0.00107247
6.41133e-06
5.80032e-05
0.00108882
5.3807e-06
4.87188e-05
0.00111307
7.16302e-06
3.56655e-05
0.00113026
3.73452e-06
1.94825e-05
0.00110152
6.89686e-06
0.000932737
3.96125e-06
5.0631e-05
0.00059302
7.27593e-06
7.35827e-05
0.000948681
1.19694e-05
8.11827e-05
0.00103818
8.86895e-06
8.30178e-05
0.0010586
9.72234e-06
8.16453e-05
0.00107249
8.03999e-06
7.5933e-05
0.00109328
6.68254e-06
6.47927e-05
0.00112252
8.25301e-06
4.84579e-05
0.00114546
4.85905e-06
2.67119e-05
0.00112305
7.79713e-06
0.000962438
5.65182e-06
6.08086e-05
0.000532699
1.16215e-05
9.24999e-05
0.000915045
1.56688e-05
0.000103486
0.00102513
1.2151e-05
0.000106488
0.00105331
1.22534e-05
0.000105563
0.00107223
1.048e-05
9.93511e-05
0.00109862
8.72412e-06
8.61186e-05
0.00113442
9.97407e-06
6.55909e-05
0.00116548
6.6249e-06
3.65041e-05
0.00115248
9.33087e-06
0.00100232
8.1032e-06
7.14026e-05
0.000460573
1.76475e-05
0.000114796
0.000869271
2.10904e-05
0.000131209
0.00100671
1.69266e-05
0.000136241
0.00104607
1.60567e-05
0.000136358
0.00107106
1.40915e-05
0.000130114
0.00110446
1.18489e-05
0.000114764
0.00114897
1.26271e-05
8.90122e-05
0.00119151
9.31132e-06
5.01171e-05
0.00119246
1.18033e-05
0.0010564
1.16518e-05
8.09425e-05
0.000376423
2.49003e-05
0.000139297
0.000807034
2.83738e-05
0.00016473
0.000978901
2.37449e-05
0.000173708
0.00103486
2.17492e-05
0.000176022
0.00106777
1.93767e-05
0.000170799
0.00110977
1.65278e-05
0.000153837
0.00116586
1.66359e-05
0.000121948
0.00122466
1.33378e-05
6.98479e-05
0.00124669
1.56481e-05
0.00113109
1.67873e-05
8.66892e-05
0.000281869
3.16628e-05
0.000162956
0.000723374
3.69597e-05
0.000203358
0.000934972
3.31534e-05
0.000220395
0.00101557
3.02017e-05
0.000227231
0.00106001
2.70595e-05
0.00022507
0.00111254
2.33537e-05
0.000208057
0.00118375
2.25394e-05
0.000169736
0.00126553
1.92032e-05
9.94784e-05
0.00132055
2.14462e-05
0.00123674
2.42088e-05
8.45372e-05
0.000184763
3.50003e-05
0.000180223
0.000615073
4.44279e-05
0.000244122
0.000865158
4.49679e-05
0.000276959
0.000980386
4.24954e-05
0.00029311
0.00104334
3.81522e-05
0.000297932
0.00110912
3.30144e-05
0.000284674
0.00119931
3.08941e-05
0.000241789
0.00131285
2.74642e-05
0.000149051
0.00141924
2.99249e-05
0.00139436
3.47498e-05
6.71801e-05
0.000112198
3.57545e-05
0.000184501
0.000486793
5.09228e-05
0.000282043
0.000761166
5.90163e-05
0.000342791
0.000917814
5.88934e-05
0.000377312
0.00100987
5.2991e-05
0.000396176
0.00109389
4.54698e-05
0.00039457
0.00120617
4.1401e-05
0.000353948
0.00136129
3.78984e-05
0.000234867
0.00154825
4.14167e-05
0.00164214
4.94318e-05
4.55807e-05
7.25168e-05
2.82834e-05
0.000171488
0.000356506
5.60009e-05
0.000303179
0.000628734
7.35982e-05
0.000407079
0.000819125
7.79921e-05
0.000479205
0.00094677
7.09793e-05
0.000527157
0.0010576
5.98155e-05
0.00055401
0.00119261
5.25664e-05
0.000527638
0.0014034
4.85734e-05
0.000424302
0.00166962
5.54841e-05
0.00208903
6.79489e-05
6.65775e-05
-8.22448e-06
2.35902e-05
0.000178482
3.90851e-05
0.000232368
0.000317765
6.6638e-05
0.000484262
0.000455657
7.68944e-05
0.000695276
0.000579445
7.25913e-05
0.000853134
0.00068486
6.10114e-05
0.000991072
0.000783702
5.19164e-05
0.00113348
0.000814917
4.80997e-05
0.00141147
0.000807618
6.11663e-05
0.00171141
8.70072e-05
0.00293845
5.74421e-05
0.000957252
8.34332e-06
2.1414e-05
0.0010502
6.50104e-06
6.47555e-06
0.00102988
6.42028e-06
2.1918e-06
0.0010194
6.41862e-06
5.27348e-08
0.00101736
6.42712e-06
-2.09189e-06
0.00101737
6.42656e-06
-6.39502e-06
0.00101941
6.41607e-06
-2.14323e-05
0.00102997
6.41689e-06
-5.77931e-05
0.00105053
6.51098e-06
0.000956942
8.35404e-06
4.11004e-05
0.000926518
1.32141e-05
2.29894e-05
0.00107808
1.26963e-05
1.25803e-05
0.0010507
1.23873e-05
5.77226e-06
0.00103676
1.2527e-05
1.73829e-07
0.00103364
1.25845e-05
-5.44666e-06
0.00103367
1.25848e-05
-1.23232e-05
0.00103683
1.25217e-05
-2.27613e-05
0.00105079
1.23941e-05
-4.05069e-05
0.00107803
1.27438e-05
0.000926847
1.32246e-05
2.48071e-05
0.000906849
1.13975e-05
1.65569e-05
0.00109213
1.11053e-05
1.08602e-05
0.00106212
1.05209e-05
5.5885e-06
0.00104765
1.05965e-05
3.67811e-07
0.0010446
1.06562e-05
-4.88868e-06
0.00104466
1.06528e-05
-1.02659e-05
0.00104782
1.05926e-05
-1.60689e-05
0.00106226
1.05289e-05
-2.42413e-05
0.00109199
1.11521e-05
0.000907786
1.13743e-05
1.42814e-05
0.000895023
9.07959e-06
1.32953e-05
0.00109816
9.01348e-06
8.92374e-06
0.00107091
8.4206e-06
4.52021e-06
0.0010563
8.36001e-06
5.73905e-07
0.00105293
8.4312e-06
-3.41653e-06
0.00105304
8.42416e-06
-7.95379e-06
0.00105658
8.35307e-06
-1.24858e-05
0.00107116
8.41396e-06
-1.35655e-05
0.00109814
9.02386e-06
0.000896705
9.04421e-06
7.87753e-06
0.000888066
7.60675e-06
1.16901e-05
0.00109905
7.8857e-06
8.14928e-06
0.00107805
7.44197e-06
4.11245e-06
0.00106386
7.39842e-06
8.23086e-07
0.00105991
7.54013e-06
-2.52271e-06
0.00106006
7.5361e-06
-6.73522e-06
0.0010643
7.38729e-06
-1.0486e-05
0.0010785
7.44043e-06
-6.74777e-06
0.00109923
7.85569e-06
0.000890835
7.55799e-06
4.50084e-06
0.000883492
6.4594e-06
1.02337e-05
0.00109773
6.90047e-06
7.42821e-06
0.00108377
6.46531e-06
3.9982e-06
0.00107026
6.53301e-06
1.12372e-06
0.00106583
6.74898e-06
-1.82953e-06
0.00106606
6.74743e-06
-5.48673e-06
0.0010709
6.52185e-06
-8.5423e-06
0.00108447
6.47519e-06
-2.96041e-06
0.0010982
6.8606e-06
0.000887703
6.40354e-06
2.91625e-06
0.000879898
5.45173e-06
9.08353e-06
0.00109593
5.97929e-06
6.66555e-06
0.00108877
5.37153e-06
3.94849e-06
0.00107574
5.55493e-06
1.49872e-06
0.001071
5.77951e-06
-1.05587e-06
0.00107132
5.78014e-06
-4.05623e-06
0.00107666
5.54183e-06
-6.80773e-06
0.00108981
5.36669e-06
-1.00824e-06
0.00109687
5.92549e-06
0.000885905
5.43694e-06
2.1933e-06
0.000876578
4.65068e-06
8.36546e-06
0.00109416
5.33002e-06
6.18061e-06
0.00109336
4.46005e-06
4.08562e-06
0.0010806
4.7653e-06
1.97438e-06
0.00107565
4.93313e-06
-2.7332e-07
0.0010761
4.93717e-06
-2.72782e-06
0.00108189
4.75099e-06
-5.37922e-06
0.00109488
4.42503e-06
1.20389e-07
0.00109584
5.23592e-06
0.000884785
4.7164e-06
1.84234e-06
0.000873181
4.0555e-06
7.98269e-06
0.00109242
4.95633e-06
6.06137e-06
0.00109753
3.80139e-06
4.48391e-06
0.00108494
4.24061e-06
2.58484e-06
0.00107993
4.32573e-06
5.10774e-07
0.00108053
4.32569e-06
-1.54326e-06
0.00108671
4.23092e-06
-4.12824e-06
0.00109973
3.73314e-06
1.00142e-06
0.00109518
4.81986e-06
0.000884107
4.20787e-06
1.64675e-06
0.000869493
3.62471e-06
7.94208e-06
0.00109072
4.78573e-06
6.27238e-06
0.00110132
3.31188e-06
5.13234e-06
0.00108882
3.89117e-06
3.37849e-06
0.00108388
3.88786e-06
1.39288e-06
0.0010847
3.87364e-06
-3.79539e-07
0.00109125
3.87994e-06
-2.958e-06
0.00110442
3.2052e-06
1.90072e-06
0.00109494
4.63002e-06
0.00088387
3.82065e-06
1.85399e-06
0.000865422
3.43212e-06
8.1465e-06
0.0010887
4.62095e-06
6.75517e-06
0.00110473
2.86157e-06
6.02224e-06
0.00109239
3.6526e-06
4.42498e-06
0.00108767
3.57076e-06
2.49667e-06
0.00108873
3.52362e-06
9.25318e-07
0.00109558
3.61432e-06
-1.65994e-06
0.00110898
2.74014e-06
2.64515e-06
0.00109498
4.4836e-06
0.00088421
3.56964e-06
2.62917e-06
0.000860773
3.22758e-06
8.65449e-06
0.00108624
4.35991e-06
7.58266e-06
0.00110765
2.4961e-06
7.22338e-06
0.0010956
3.46822e-06
5.74819e-06
0.00109121
3.30298e-06
3.84309e-06
0.0010926
3.22436e-06
2.45008e-06
0.00109981
3.41523e-06
-2.63877e-07
0.00111348
2.3297e-06
3.18828e-06
0.00109522
4.24765e-06
0.000885197
3.41045e-06
3.78115e-06
0.000855105
2.97304e-06
9.49693e-06
0.00108364
4.24108e-06
8.85623e-06
0.00110995
2.21282e-06
8.8267e-06
0.00109833
3.28188e-06
7.4346e-06
0.00109438
3.01145e-06
5.54274e-06
0.00109627
2.93058e-06
4.23963e-06
0.00110396
3.26658e-06
1.32957e-06
0.00111798
1.96817e-06
3.83491e-06
0.00109604
4.06922e-06
0.000886912
3.25032e-06
5.24917e-06
0.000847886
2.83807e-06
1.07826e-05
0.001081
4.14186e-06
1.06526e-05
0.00111167
1.97666e-06
1.09471e-05
0.00110069
3.14417e-06
9.6695e-06
0.00109731
2.79647e-06
7.76813e-06
0.00109984
2.69811e-06
6.39874e-06
0.00110808
3.13989e-06
3.24785e-06
0.00112257
1.62976e-06
4.62524e-06
0.00109771
3.97757e-06
0.000889417
3.11196e-06
7.13967e-06
0.000838696
2.7469e-06
1.27884e-05
0.00107806
4.11349e-06
1.31497e-05
0.00111286
1.85797e-06
1.37527e-05
0.00110273
3.09105e-06
1.25966e-05
0.00110008
2.69119e-06
1.06044e-05
0.00110342
2.54248e-06
9.00626e-06
0.00111238
3.06309e-06
5.43428e-06
0.00112752
1.36933e-06
5.64262e-06
0.00110034
3.91652e-06
0.000892979
3.02862e-06
9.56706e-06
0.000827049
2.6988e-06
1.5626e-05
0.00107452
4.1706e-06
1.65375e-05
0.00111346
1.85759e-06
1.74374e-05
0.00110447
3.10406e-06
1.63749e-05
0.00110271
2.66174e-06
1.42131e-05
0.00110708
2.45238e-06
1.22648e-05
0.001117
3.04921e-06
8.10985e-06
0.00113302
1.20578e-06
6.96135e-06
0.00110409
3.89001e-06
0.000897958
2.99077e-06
1.26669e-05
0.000812306
2.74743e-06
1.94616e-05
0.0010701
4.32077e-06
2.10429e-05
0.00111335
1.98539e-06
2.22482e-05
0.00110586
3.19209e-06
2.12506e-05
0.00110522
2.71218e-06
1.88387e-05
0.00111093
2.43566e-06
1.63885e-05
0.0011221
3.10265e-06
1.14382e-05
0.00113929
1.13907e-06
8.66331e-06
0.00110927
3.90392e-06
0.000904779
3.01981e-06
1.66126e-05
0.00079368
2.95686e-06
2.45733e-05
0.00106438
4.59817e-06
2.69601e-05
0.00111244
2.27201e-06
2.8495e-05
0.00110692
3.38549e-06
2.75487e-05
0.00110767
2.86966e-06
2.48001e-05
0.00111508
2.51493e-06
2.16505e-05
0.00112788
3.23029e-06
1.56387e-05
0.00114661
1.17548e-06
1.0862e-05
0.00111628
3.97405e-06
0.000913989
3.14192e-06
2.15825e-05
0.000770223
3.4109e-06
3.12929e-05
0.00105685
5.06445e-06
3.46558e-05
0.00111059
2.77211e-06
3.6568e-05
0.00110761
3.73352e-06
3.56757e-05
0.0011101
3.17815e-06
3.24934e-05
0.00111966
2.72546e-06
2.84129e-05
0.00113457
3.46122e-06
2.10024e-05
0.00115534
1.33488e-06
1.37052e-05
0.00112567
4.1251e-06
0.000926298
3.39668e-06
2.77046e-05
0.000740859
4.24139e-06
4.00007e-05
0.00104683
5.82099e-06
4.45763e-05
0.00110768
3.55496e-06
4.69445e-05
0.00110793
4.30469e-06
4.61357e-05
0.00111255
3.69663e-06
4.24275e-05
0.00112481
3.12059e-06
3.71503e-05
0.00114248
3.84216e-06
2.79156e-05
0.00116595
1.65862e-06
1.74221e-05
0.00113817
4.39773e-06
0.000942668
3.83804e-06
3.50741e-05
0.000704558
5.59244e-06
5.11692e-05
0.00103328
7.01148e-06
5.72702e-05
0.00110352
4.73609e-06
6.02124e-05
0.00110783
5.19962e-06
5.95668e-05
0.00111507
4.5166e-06
5.52717e-05
0.00113068
3.7825e-06
4.85028e-05
0.00115195
4.4434e-06
3.6905e-05
0.00117905
2.21089e-06
2.23213e-05
0.00115478
4.85683e-06
0.000964398
4.54036e-06
4.3668e-05
0.000660491
7.65227e-06
6.52486e-05
0.00101481
8.84219e-06
7.3381e-05
0.00109775
6.47758e-06
7.70837e-05
0.00110727
6.56054e-06
7.677e-05
0.00111764
5.76024e-06
7.19057e-05
0.00113738
4.82092e-06
6.33544e-05
0.00116337
5.36232e-06
4.87312e-05
0.00119543
3.08516e-06
2.88774e-05
0.00117681
5.59687e-06
0.00099331
5.60495e-06
5.32256e-05
0.000608214
1.06525e-05
8.24103e-05
0.000989739
1.15397e-05
9.3539e-05
0.0010898
8.96419e-06
9.83791e-05
0.0011061
8.56682e-06
9.8733e-05
0.00112016
7.58609e-06
9.35019e-05
0.00114494
6.38263e-06
8.29637e-05
0.00117713
6.73163e-06
6.45292e-05
0.00121606
4.40889e-06
3.77975e-05
0.00120611
6.74399e-06
0.00103203
7.17393e-06
6.32074e-05
0.000547919
1.47176e-05
0.000102537
0.000956134
1.53508e-05
0.000118283
0.00107854
1.24164e-05
0.000125014
0.00110395
1.14494e-05
0.00012668
0.00112237
1.0203e-05
0.000121638
0.00115315
8.6566e-06
0.000109156
0.00119351
8.71885e-06
8.60499e-05
0.00124213
6.33735e-06
5.02287e-05
0.00124527
8.45863e-06
0.00108447
9.42911e-06
7.27065e-05
0.000480403
1.96891e-05
0.000124729
0.000912076
2.03944e-05
0.000147788
0.00106214
1.70724e-05
0.000157943
0.00110004
1.54895e-05
0.000162103
0.00112371
1.38586e-05
0.000158446
0.00116147
1.1856e-05
0.00014465
0.00121242
1.15029e-05
0.000116184
0.00127489
9.03497e-06
6.82662e-05
0.00129791
1.0917e-05
0.00115696
1.25714e-05
8.0347e-05
0.000406982
2.47069e-05
0.000147301
0.000855575
2.64883e-05
0.000181632
0.00103779
2.31634e-05