/*--------------------------------*- C++ -*----------------------------------*\
| =========                 |                                                 |
| \\      /  F ield         | OpenFOAM: The Open Source CFD Toolbox           |
|  \\    /   O peration     | Version:  4.1                                   |
|   \\  /    A nd           | Web:      www.OpenFOAM.org                      |
|    \\/     M anipulation  |                                                 |
\*---------------------------------------------------------------------------*/
FoamFile
{
    version     2.0;
    format      ascii;
    class       volVectorField;
    location    "1300";
    object      U;
}
// * * * * * * * * * * * * * * * * * * * * * * * * * * * * * * * * * * * * * //

dimensions      [0 1 -1 0 0 0 0];

internalField   nonuniform List<vector> 
12000
(
(0.0919646 -0.00970057 0.00969634)
(0.0965618 -0.00181541 0.0107159)
(0.0959725 -0.0013564 0.0111049)
(0.0955836 -0.000559913 0.0111177)
(0.0954873 -0.000151039 0.0111459)
(0.0954874 0.00013438 0.0111458)
(0.0955839 0.000544382 0.0111177)
(0.0959726 0.0013418 0.0111053)
(0.0965632 0.00180059 0.0107159)
(0.0919681 0.00970901 0.00969746)
(0.0861758 -0.0038238 0.00381326)
(0.0951151 -0.00253731 0.00539691)
(0.093717 -0.00196898 0.00576655)
(0.0926452 -0.000885099 0.00572084)
(0.0923103 -0.000278461 0.00575216)
(0.0923118 0.000235618 0.00575135)
(0.0926489 0.000844176 0.00571913)
(0.093722 0.00192691 0.00576006)
(0.0951199 0.0024886 0.00540889)
(0.0861882 0.00382866 0.00382873)
(0.0822257 0.00076567 -0.000783401)
(0.0930966 -0.00255461 0.000347558)
(0.0918783 -0.00164392 0.000537576)
(0.0906492 -0.000793338 0.000521314)
(0.0901714 -0.000299572 0.000553875)
(0.0901756 0.000223694 0.000553186)
(0.0906598 0.000721925 0.000513708)
(0.0918905 0.0015751 0.000526639)
(0.0931106 0.00248704 0.000352362)
(0.0822838 -0.000767859 -0.000762323)
(0.0795048 0.00271196 -0.00273888)
(0.0907017 -0.00249289 -0.00244407)
(0.0901128 -0.00116661 -0.00240052)
(0.0890905 -0.000668021 -0.00231377)
(0.0885849 -0.000300735 -0.0022691)
(0.0885935 0.000183573 -0.00226955)
(0.0891135 0.00055865 -0.00232513)
(0.0901405 0.0010659 -0.00240913)
(0.0907271 0.00240483 -0.00239403)
(0.0796164 -0.00270952 -0.00269156)
(0.0781075 0.00324863 -0.00328763)
(0.0890027 -0.00240522 -0.00370088)
(0.0890794 -0.000781851 -0.00376156)
(0.0882846 -0.000628237 -0.00357096)
(0.087772 -0.000313356 -0.00351134)
(0.0877869 0.000142737 -0.00351394)
(0.0883261 0.000470341 -0.00357936)
(0.0891358 0.000635987 -0.00378543)
(0.0890506 0.00229301 -0.00364594)
(0.0782985 -0.00326371 -0.00323435)
(0.0773567 0.00316083 -0.00321574)
(0.0879283 -0.00228449 -0.00405244)
(0.08861 -0.00049009 -0.00426952)
(0.0879497 -0.000637117 -0.00399142)
(0.0874183 -0.000325911 -0.0039309)
(0.0874412 8.76618e-05 -0.00393375)
(0.0880144 0.000417787 -0.00399719)
(0.0887064 0.000285495 -0.00429666)
(0.088016 0.00214432 -0.00406713)
(0.0776531 -0.0032371 -0.0031963)
(0.0766945 0.00283563 -0.00291123)
(0.0871108 -0.00215139 -0.00395634)
(0.0883399 -0.000276182 -0.00435086)
(0.0877476 -0.000664654 -0.00401062)
(0.0872083 -0.000333422 -0.00396)
(0.0872406 9.02925e-06 -0.00396487)
(0.0878406 0.000367705 -0.00401296)
(0.0884854 2.60274e-06 -0.00436156)
(0.0872476 0.00197399 -0.00396954)
(0.0771466 -0.00297663 -0.00292186)
(0.075956 0.00244787 -0.00255026)
(0.0863764 -0.002022 -0.00367038)
(0.0880887 -0.00013662 -0.00422179)
(0.0875284 -0.000710243 -0.00384127)
(0.0870083 -0.000343852 -0.00380726)
(0.0870533 -9.08036e-05 -0.0038152)
(0.0876596 0.000315124 -0.00384238)
(0.0882993 -0.000221156 -0.00422257)
(0.086566 0.00178702 -0.00367181)
(0.076616 -0.00265169 -0.00257566)
(0.0751681 0.00206965 -0.0022067)
(0.0857278 -0.00190471 -0.00332976)
(0.087843 -6.41862e-05 -0.00401033)
(0.0872898 -0.000778604 -0.00360302)
(0.0868138 -0.000367859 -0.00359598)
(0.0868741 -0.00020875 -0.00359886)
(0.0874708 0.000255417 -0.0035999)
(0.088141 -0.000405209 -0.00400777)
(0.0859798 0.00158583 -0.00333281)
(0.0760965 -0.00233896 -0.00223348)
(0.0743445 0.00172005 -0.00190161)
(0.085156 -0.00181006 -0.00299902)
(0.0876147 -4.82221e-05 -0.00377978)
(0.0870541 -0.000873234 -0.00335487)
(0.0866434 -0.000414239 -0.00337199)
(0.0867258 -0.000344616 -0.00337085)
(0.0872995 0.000181251 -0.00334407)
(0.0880305 -0.000572379 -0.00377816)
(0.085492 0.00137526 -0.00300715)
(0.0756207 -0.00206352 -0.0019205)
(0.073476 0.00140619 -0.00164639)
(0.0847569 -0.00176797 -0.0026352)
(0.0873948 -0.000111179 -0.0035332)
(0.0868225 -0.00100302 -0.00311282)
(0.0864933 -0.000490484 -0.00314615)
(0.086605 -0.000501322 -0.00314784)
(0.0871525 8.80909e-05 -0.00309946)
(0.0879671 -0.000715159 -0.00353717)
(0.0851907 0.00117523 -0.00265659)
(0.0752075 -0.00184053 -0.00165104)
(0.0725494 0.00111956 -0.00143749)
(0.0842874 -0.00176046 -0.00232118)
(0.0871862 -0.000245282 -0.003275)
(0.0866365 -0.00116434 -0.0028641)
(0.0864229 -0.000608586 -0.00290085)
(0.0865422 -0.000701542 -0.00291912)
(0.0870288 -4.36319e-05 -0.00286836)
(0.0879543 -0.000842788 -0.00328947)
(0.084894 0.000967782 -0.0023519)
(0.0748642 -0.00166856 -0.00142288)
(0.071548 0.000837826 -0.00125723)
(0.0837917 -0.00179215 -0.00207199)
(0.0869589 -0.000423656 -0.00303708)
(0.0864335 -0.00136128 -0.00263995)
(0.0863319 -0.000784246 -0.00268281)
(0.0864872 -0.000954047 -0.00271083)
(0.0869635 -0.000225527 -0.00264044)
(0.0879951 -0.00099499 -0.00304887)
(0.08465 0.000740099 -0.00210385)
(0.0746073 -0.00153307 -0.00122159)
(0.0704301 0.000550626 -0.00110057)
(0.0832754 -0.00187942 -0.00187305)
(0.0866794 -0.000661427 -0.00283402)
(0.086198 -0.00161705 -0.00245687)
(0.0862193 -0.0010285 -0.00250514)
(0.086453 -0.0012567 -0.00253237)
(0.0869196 -0.000468254 -0.00244033)
(0.0880541 -0.00119338 -0.00284176)
(0.084491 0.000486343 -0.00190205)
(0.074445 -0.00142927 -0.00104251)
(0.0691451 0.000248304 -0.000963508)
(0.0827314 -0.00203896 -0.00170643)
(0.0863546 -0.000979571 -0.00265008)
(0.0859493 -0.00195323 -0.00229732)
(0.0861152 -0.00135984 -0.00234274)
(0.0864432 -0.00163171 -0.00237491)
(0.0869102 -0.000793095 -0.00227303)
(0.0881664 -0.00144877 -0.00266372)
(0.084442 0.000203766 -0.00173445)
(0.0743975 -0.00135685 -0.000884447)
(0.0676295 -8.06375e-05 -0.000842069)
(0.0821412 -0.00228815 -0.00155973)
(0.085965 -0.00140032 -0.00247664)
(0.0856723 -0.00239358 -0.00215034)
(0.086003 -0.00180826 -0.00218656)
(0.0864532 -0.00210975 -0.002228)
(0.0869463 -0.00122169 -0.00212794)
(0.0883497 -0.00177755 -0.00250313)
(0.0845276 -0.000120298 -0.0015919)
(0.0744904 -0.00131782 -0.000744995)
(0.065801 -0.000450476 -0.00073061)
(0.0814692 -0.00265143 -0.00142085)
(0.0854915 -0.00195557 -0.0023076)
(0.0853555 -0.0029695 -0.00201198)
(0.085874 -0.00240844 -0.00203395)
(0.0864842 -0.00272185 -0.00208766)
(0.0870499 -0.00178087 -0.0019917)
(0.0886239 -0.00220464 -0.00235298)
(0.0847788 -0.000504285 -0.0014659)
(0.0747563 -0.00131701 -0.000618577)
(0.0635528 -0.00087642 -0.000621159)
(0.0806573 -0.00315932 -0.00127719)
(0.0849019 -0.00268755 -0.00213454)
(0.0849822 -0.00372181 -0.00187859)
(0.085714 -0.00320211 -0.00188409)
(0.0865373 -0.00350613 -0.00195043)
(0.0872306 -0.00250651 -0.00185956)
(0.0890133 -0.002762 -0.00220584)
(0.0852335 -0.000972624 -0.00134569)
(0.0752374 -0.00136163 -0.000498196)
(0.0607457 -0.0013729 -0.000502177)
(0.0796121 -0.0038469 -0.00112043)
(0.0841642 -0.00364899 -0.00194917)
(0.0845284 -0.00470204 -0.00174426)
(0.0855104 -0.00424084 -0.0017318)
(0.0866137 -0.00451393 -0.00180943)
(0.087504 -0.00344663 -0.00172625)
(0.0895419 -0.00348989 -0.00205403)
(0.0859346 -0.00155721 -0.00122398)
(0.0759884 -0.00146255 -0.000376594)
(0.057205 -0.00194951 -0.000356937)
(0.0781943 -0.00475109 -0.000938362)
(0.0832313 -0.00490296 -0.00174018)
(0.0839629 -0.00597524 -0.00159868)
(0.0852382 -0.00559022 -0.0015704)
(0.0867029 -0.00581228 -0.00165818)
(0.0878825 -0.0046666 -0.00158561)
(0.0902322 -0.0044437 -0.00188959)
(0.0869353 -0.00229878 -0.00109471)
(0.0770816 -0.00163348 -0.000244209)
(0.0527238 -0.00260133 -0.000166101)
(0.076207 -0.00590486 -0.000708624)
(0.0820338 -0.00652404 -0.00149229)
(0.0832364 -0.00762186 -0.00142977)
(0.0848627 -0.00733105 -0.00139024)
(0.0867868 -0.00748691 -0.00148513)
(0.0883751 -0.00625337 -0.00142718)
(0.0911191 -0.00570161 -0.00170473)
(0.0883011 -0.00325361 -0.000951021)
(0.0786103 -0.0018964 -9.07698e-05)
(0.0470743 -0.00329763 9.31326e-05)
(0.0733441 -0.00732004 -0.000407677)
(0.0804552 -0.00858518 -0.00118662)
(0.0822848 -0.0097358 -0.00121951)
(0.0843309 -0.00956015 -0.00117723)
(0.0868254 -0.0096484 -0.00127585)
(0.0889775 -0.00832426 -0.00123759)
(0.092242 -0.0073742 -0.0014876)
(0.0901196 -0.00450301 -0.000780396)
(0.0807035 -0.00228324 9.87642e-05)
(0.0400478 -0.00396009 0.000436246)
(0.0692187 -0.00895833 -6.56801e-06)
(0.0783003 -0.01113 -0.000796264)
(0.0810037 -0.0124197 -0.00094329)
(0.0835544 -0.0123951 -0.000911898)
(0.0867413 -0.0124403 -0.00100966)
(0.0896639 -0.0110388 -0.000996085)
(0.0936406 -0.00962138 -0.00122041)
(0.0925032 -0.00616983 -0.000565456)
(0.0835365 -0.00284719 0.000343292)
(0.0315296 -0.00443082 0.000850296)
(0.0633295 -0.010672 0.000504912)
(0.0752437 -0.0141144 -0.000286468)
(0.0792175 -0.0157681 -0.000564975)
(0.0823905 -0.0159784 -0.000566764)
(0.0864019 -0.0160474 -0.000661256)
(0.0903594 -0.0146185 -0.000674915)
(0.0953422 -0.0126834 -0.000877564)
(0.0955999 -0.00844559 -0.0002795)
(0.087381 -0.00366835 0.000670817)
(0.0216398 -0.00443456 0.00125119)
(0.0551691 -0.0121313 0.00109362)
(0.0706851 -0.0173107 0.000364076)
(0.0765687 -0.0198076 -3.61398e-05)
(0.0806056 -0.0204724 -0.000101433)
(0.0855894 -0.0207075 -0.00019414)
(0.0909138 -0.019371 -0.000234718)
(0.0973446 -0.0169279 -0.000422215)
(0.0996163 -0.0116549 0.000114887)
(0.0926245 -0.00490546 0.00112023)
(0.0108873 -0.00352196 0.00137738)
(0.0443876 -0.0127114 0.0015787)
(0.0637957 -0.0201543 0.00115835)
(0.0724207 -0.0243764 0.000728767)
(0.0777918 -0.0260498 0.000553108)
(0.0839437 -0.026749 0.000434201)
(0.0910096 -0.0257423 0.000370332)
(0.0995326 -0.0229347 0.00019881)
(0.104787 -0.0163445 0.000672828)
(0.100062 -0.00677773 0.00175061)
(0.00057761 -0.000782897 0.00134479)
(0.030947 -0.0114454 0.00171394)
(0.0532186 -0.021705 0.00193644)
(0.0654381 -0.0289222 0.00178646)
(0.0731227 -0.0326999 0.00153514)
(0.0809048 -0.0345177 0.00131931)
(0.0901814 -0.03432 0.00120767)
(0.101694 -0.0316237 0.0010475)
(0.1115 -0.0236138 0.00148144)
(0.110719 -0.0100308 0.00265231)
(-0.0034542 0.00238037 0.00212285)
(0.0169929 -0.00734613 0.00231154)
(0.0385252 -0.0205423 0.00297629)
(0.0540855 -0.0323688 0.00317042)
(0.0651243 -0.0401488 0.00291236)
(0.0752997 -0.0444963 0.00255535)
(0.0872281 -0.0460371 0.00234909)
(0.102784 -0.0444224 0.00220693)
(0.119371 -0.0354867 0.00263062)
(0.128561 -0.0152193 0.00396887)
(-0.0067284 6.87776e-05 0.000811047)
(-0.00177504 -0.00497374 0.00228939)
(0.0168993 -0.0164785 0.00443179)
(0.035589 -0.0316909 0.00546122)
(0.0512552 -0.0453437 0.00530252)
(0.0656047 -0.0554014 0.0045858)
(0.0813297 -0.0616089 0.00401732)
(0.102474 -0.0636187 0.00373493)
(0.128581 -0.0566899 0.00426337)
(0.155577 -0.0285918 0.00586941)
(-0.0132942 -0.00449874 -0.00182054)
(-0.0164086 -0.0143498 -0.00212111)
(-0.00642707 -0.0235832 0.000514496)
(0.00906913 -0.0338786 0.00434811)
(0.0260656 -0.0476903 0.0068066)
(0.0444057 -0.0633094 0.00742003)
(0.0642869 -0.0790824 0.0068613)
(0.0937302 -0.0895104 0.00616514)
(0.12708 -0.101764 0.00621102)
(0.217195 -0.0473918 0.00866423)
(0.0965583 -0.0107194 0.00180816)
(0.101334 -0.00137051 0.00136498)
(0.100923 -0.00122944 0.00147368)
(0.100648 -0.000465472 0.00144791)
(0.100605 -0.000115226 0.00146103)
(0.100605 0.000103433 0.001461)
(0.100649 0.000454748 0.00144747)
(0.100925 0.00122059 0.00147265)
(0.101341 0.00136145 0.00136528)
(0.0965599 0.0107987 0.0018156)
(0.0951038 -0.00540542 0.00251921)
(0.1086 -0.00237718 0.00235972)
(0.106219 -0.00201232 0.0024685)
(0.105033 -0.000790648 0.00241715)
(0.104803 -0.000246355 0.00245097)
(0.104804 0.000209187 0.00245092)
(0.105037 0.000757261 0.00241571)
(0.106228 0.00197687 0.00246384)
(0.108622 0.00231689 0.00235707)
(0.0950898 0.0054733 0.00252497)
(0.0930704 -0.000363263 0.00252538)
(0.112059 -0.00285104 0.0028226)
(0.109272 -0.00171747 0.00283691)
(0.10766 -0.000663126 0.0027667)
(0.107318 -0.000282015 0.00280944)
(0.107321 0.000207544 0.00280883)
(0.107671 0.00059368 0.0027657)
(0.109282 0.0016534 0.00283056)
(0.112041 0.00278194 0.00282075)
(0.0931155 0.000417839 0.00252429)
(0.0906525 0.00241824 0.00245054)
(0.112287 -0.00324616 0.00320649)
(0.11005 -0.00121528 0.00311674)
(0.108504 -0.000527075 0.00306407)
(0.108152 -0.00030169 0.00311367)
(0.10816 0.000186138 0.00311322)
(0.108525 0.000417974 0.00306267)
(0.110075 0.00111638 0.00310968)
(0.112286 0.00315053 0.00319576)
(0.0907566 -0.00235283 0.00244075)
(0.0889211 0.0036643 0.00234565)
(0.111315 -0.0035176 0.00346356)
(0.109942 -0.000783563 0.00327759)
(0.108583 -0.000522791 0.00327874)
(0.108224 -0.000333128 0.00333327)
(0.108236 0.000167293 0.00333308)
(0.108616 0.000369078 0.00327602)
(0.109984 0.000636449 0.00327572)
(0.111334 0.00341357 0.00346479)
(0.0891211 -0.00368188 0.00232354)
(0.0878009 0.00400124 0.00220236)
(0.110355 -0.00362411 0.00355169)
(0.109805 -0.000431948 0.00328642)
(0.108589 -0.000586302 0.00334525)
(0.10819 -0.000353496 0.00339188)
(0.108207 0.000127087 0.00339069)
(0.10864 0.000381044 0.00334173)
(0.109867 0.000229635 0.00328644)
(0.110378 0.00351475 0.00357513)
(0.0881441 -0.0041906 0.00217584)
(0.0869195 0.00388575 0.00204075)
(0.109515 -0.00363267 0.00353692)
(0.109685 -0.000166251 0.00321503)
(0.108588 -0.000672651 0.00332648)
(0.108144 -0.000353723 0.0033477)
(0.108169 5.10465e-05 0.00334672)
(0.108666 0.000400877 0.00332395)
(0.109778 -0.000100902 0.0032122)
(0.109546 0.00348556 0.00355947)
(0.0874471 -0.00417366 0.0020205)
(0.0860968 0.00357545 0.00187316)
(0.108735 -0.00359659 0.00346927)
(0.10953 6.68126e-06 0.00310832)
(0.108544 -0.000778143 0.00327076)
(0.108072 -0.000345042 0.0032576)
(0.108106 -5.49761e-05 0.00325647)
(0.108655 0.000419567 0.00327164)
(0.109662 -0.000358414 0.00310359)
(0.108823 0.00338505 0.00348283)
(0.0868485 -0.00390868 0.00186529)
(0.08533 0.0032026 0.00170438)
(0.107993 -0.00353106 0.00336194)
(0.109351 9.51792e-05 0.00298225)
(0.108471 -0.000903839 0.00319255)
(0.107986 -0.000340981 0.0031464)
(0.108033 -0.000184207 0.00314398)
(0.108627 0.00043516 0.0031963)
(0.109538 -0.000555298 0.00297457)
(0.10818 0.00324016 0.00337447)
(0.0863589 -0.00357544 0.00170957)
(0.0846016 0.00282989 0.00154311)
(0.107291 -0.00350085 0.00327492)
(0.10918 0.000109561 0.0028424)
(0.108396 -0.00104712 0.00309701)
(0.107905 -0.00035211 0.00301903)
(0.107968 -0.000337463 0.00301457)
(0.108608 0.000436171 0.00310113)
(0.109445 -0.00070776 0.00283348)
(0.107607 0.00309455 0.00328012)
(0.0859889 -0.00325274 0.00155831)
(0.0840011 0.00241037 0.00141588)
(0.106437 -0.00336207 0.00306066)
(0.109 5.4217e-05 0.00270901)
(0.108319 -0.00119371 0.00300663)
(0.107829 -0.000387699 0.00290487)
(0.107918 -0.000519407 0.00288624)
(0.108611 0.000399054 0.00299395)
(0.109375 -0.000828469 0.00269532)
(0.106944 0.00282702 0.00307871)
(0.0858321 -0.00291263 0.00143475)
(0.0832614 0.00202463 0.00129581)
(0.105809 -0.00320186 0.00280444)
(0.108786 -4.32657e-05 0.00257888)
(0.10819 -0.00134529 0.00288471)
(0.107699 -0.000463337 0.0027488)
(0.107848 -0.000724943 0.0027333)
(0.108627 0.000313634 0.00289435)
(0.109318 -0.000961967 0.00255902)
(0.106496 0.00250904 0.00284217)
(0.0857117 -0.00262747 0.00132647)
(0.0824121 0.00168315 0.0011735)
(0.105281 -0.00313631 0.00260957)
(0.108552 -0.000196253 0.00244416)
(0.108063 -0.00153781 0.00274211)
(0.107601 -0.000585673 0.00257523)
(0.107807 -0.000958535 0.00257768)
(0.108635 0.000180595 0.00277711)
(0.109274 -0.00110883 0.00240687)
(0.106193 0.0022201 0.00265164)
(0.085677 -0.00241074 0.00122571)
(0.0814404 0.00136752 0.00105548)
(0.104783 -0.0031475 0.00245503)
(0.108319 -0.000409112 0.00232608)
(0.107949 -0.00178477 0.00262709)
(0.107536 -0.000768777 0.00244795)
(0.10779 -0.00124269 0.00244826)
(0.108685 -2.97007e-06 0.00265469)
(0.109305 -0.00129024 0.00226829)
(0.105991 0.00194765 0.0025027)
(0.0857591 -0.00225463 0.00113266)
(0.0803144 0.0010553 0.000951055)
(0.104269 -0.00322301 0.00231789)
(0.108058 -0.00070075 0.00222476)
(0.107818 -0.00209386 0.00253171)
(0.107467 -0.00103592 0.00234742)
(0.107792 -0.00159012 0.00233568)
(0.108782 -0.000253976 0.00255019)
(0.109401 -0.00151393 0.00215682)
(0.105889 0.00165653 0.00236993)
(0.0859784 -0.00214657 0.00105445)
(0.0789875 0.000727279 0.000862395)
(0.103699 -0.00337373 0.00219254)
(0.107761 -0.00108788 0.00213529)
(0.107669 -0.00248466 0.00244225)
(0.107402 -0.00140733 0.00225384)
(0.107822 -0.00201718 0.00223418)
(0.10893 -0.000595178 0.002464)
(0.109569 -0.001796 0.00206124)
(0.105916 0.00132599 0.00224982)
(0.0863379 -0.00207676 0.000992483)
(0.0773961 0.000363707 0.000793043)
(0.103036 -0.00361834 0.00208147)
(0.107412 -0.00159497 0.0020653)
(0.107497 -0.0029836 0.0023637)
(0.107344 -0.0019094 0.00217182)
(0.107888 -0.00254835 0.00214614)
(0.109132 -0.00105311 0.00238776)
(0.109824 -0.00215611 0.0019798)
(0.106096 0.00093878 0.00214379)
(0.086876 -0.00204298 0.000949924)
(0.0754609 -5.5213e-05 0.000751067)
(0.10224 -0.00397818 0.0019881)
(0.107004 -0.0022546 0.00201959)
(0.107298 -0.00362461 0.00230265)
(0.107298 -0.00257661 0.00211039)
(0.107996 -0.00321779 0.00207632)
(0.109406 -0.00165918 0.00232078)
(0.110189 -0.00262 0.00191585)
(0.10646 0.000472645 0.002053)
(0.0876422 -0.00204543 0.000931186)
(0.0730801 -0.000541218 0.000747016)
(0.101262 -0.00448283 0.00192351)
(0.106518 -0.00310838 0.00200337)
(0.107064 -0.0044512 0.00226762)
(0.107265 -0.00345378 0.00207638)
(0.108156 -0.00406869 0.00202854)
(0.109774 -0.00245602 0.00227028)
(0.110702 -0.00322355 0.00187669)
(0.107059 -9.81099e-05 0.00198183)
(0.0886981 -0.00208885 0.000942308)
(0.0701372 -0.00110326 0.000796867)
(0.100029 -0.00517386 0.00191042)
(0.105937 -0.00420972 0.00202654)
(0.10679 -0.00551842 0.00226677)
(0.107247 -0.00459654 0.00207861)
(0.108382 -0.00515768 0.00201141)
(0.110262 -0.00349786 0.00224431)
(0.111417 -0.00401535 0.00186774)
(0.107965 -0.000806797 0.00193895)
(0.0901263 -0.00218686 0.000991313)
(0.066515 -0.00174991 0.000927304)
(0.0984194 -0.00607623 0.00196573)
(0.105232 -0.00561899 0.00210234)
(0.106469 -0.00689328 0.0023145)
(0.107245 -0.0060747 0.00213225)
(0.108689 -0.0065588 0.00203847)
(0.110904 -0.00485758 0.00225311)
(0.112393 -0.00506225 0.00189829)
(0.109272 -0.00169898 0.00193798)
(0.0920401 -0.00235906 0.00109043)
(0.0620494 -0.00246888 0.00117073)
(0.0963035 -0.00722066 0.00212335)
(0.104369 -0.00740307 0.00225231)
(0.106089 -0.00865851 0.0024301)
(0.10725 -0.00797596 0.00225417)
(0.109086 -0.00836884 0.00212566)
(0.111735 -0.00663469 0.00231308)
(0.113705 -0.00645831 0.00198386)
(0.111098 -0.00284265 0.00199735)
(0.0945984 -0.00263458 0.00125777)
(0.0566111 -0.00323202 0.00155407)
(0.0934547 -0.0086101 0.00241784)
(0.103264 -0.00962798 0.00251501)
(0.105625 -0.0109118 0.00263832)
(0.107245 -0.0104071 0.00246614)
(0.109579 -0.010716 0.00229866)
(0.112798 -0.00896793 0.00244812)
(0.115447 -0.0083427 0.00214648)
(0.113609 -0.00434351 0.00214211)
(0.0980252 -0.00305723 0.00152088)
(0.0500338 -0.00395618 0.00208046)
(0.0896023 -0.0102038 0.00287944)
(0.101763 -0.0123224 0.00292025)
(0.105024 -0.0137609 0.00297666)
(0.10719 -0.0135032 0.00280598)
(0.11015 -0.013774 0.0025954)
(0.11412 -0.0120558 0.0026925)
(0.117728 -0.0109266 0.00241718)
(0.117031 -0.0063675 0.0024095)
(0.102657 -0.00370133 0.00191921)
(0.0422254 -0.00449195 0.00268362)
(0.0843259 -0.0118662 0.00349974)
(0.099581 -0.0154431 0.00351732)
(0.104167 -0.0173142 0.00350624)
(0.107004 -0.0174334 0.00332291)
(0.11074 -0.017775 0.00306573)
(0.115711 -0.0161861 0.00309467)
(0.120679 -0.0145437 0.00284653)
(0.121684 -0.00920431 0.00285248)
(0.108982 -0.00470221 0.00251399)
(0.0331829 -0.00456348 0.00315736)
(0.0771617 -0.0132932 0.00419521)
(0.0962228 -0.0187805 0.00434292)
(0.10279 -0.0216364 0.00431298)
(0.106524 -0.022418 0.00409614)
(0.111202 -0.0230408 0.00377756)
(0.117494 -0.0217819 0.00372017)
(0.124383 -0.0197269 0.00349296)
(0.127996 -0.0133476 0.00354383)
(0.117939 -0.00624812 0.00339113)
(0.0232064 -0.00380438 0.00320481)
(0.0675 -0.0139433 0.00468778)
(0.0908152 -0.0218559 0.00537289)
(0.100357 -0.0266301 0.00552163)
(0.105482 -0.0286765 0.00524721)
(0.111311 -0.0299849 0.00481831)
(0.119311 -0.0294522 0.00464979)
(0.128916 -0.0273681 0.00444266)
(0.136621 -0.019788 0.00459071)
(0.130723 -0.00903696 0.00468502)
(0.0140464 -0.00169642 0.00337922)
(0.0556952 -0.0130614 0.00524077)
(0.082514 -0.0239966 0.00666934)
(0.0959444 -0.0320043 0.00720313)
(0.103272 -0.0364164 0.00688288)
(0.110522 -0.039151 0.00627004)
(0.12055 -0.0400433 0.00593105)
(0.13385 -0.0388681 0.00573988)
(0.147808 -0.0304999 0.00609144)
(0.151665 -0.0135394 0.00656773)
(0.00820104 -0.000271046 0.00363703)
(0.0420302 -0.0106959 0.00614326)
(0.0703484 -0.0239798 0.00834336)
(0.0882378 -0.0363033 0.00948351)
(0.0991801 -0.0450494 0.00917764)
(0.108581 -0.0510029 0.00825205)
(0.120875 -0.0546921 0.00761708)
(0.138982 -0.0562984 0.00739075)
(0.162088 -0.0495072 0.00820027)
(0.18314 -0.0255725 0.00925342)
(0.00495077 -0.00273389 0.000696545)
(0.0288888 -0.0111019 0.00501229)
(0.0552824 -0.0244532 0.00845001)
(0.0757669 -0.0390486 0.0104884)
(0.0904347 -0.0523774 0.010843)
(0.103057 -0.0639058 0.0100124)
(0.117097 -0.0742816 0.00910189)
(0.141503 -0.0817612 0.00875108)
(0.170796 -0.0907048 0.0100647)
(0.250324 -0.0422393 0.0128316)
(0.0959696 -0.0111082 0.00134885)
(0.100923 -0.00147906 0.00122373)
(0.10065 -0.00117365 0.00116841)
(0.100408 -0.00046317 0.00117918)
(0.100368 -0.00011442 0.00118426)
(0.100368 0.000104334 0.00118415)
(0.100409 0.000454297 0.00117879)
(0.100652 0.00116644 0.00116753)
(0.100928 0.00147423 0.00122414)
(0.0959698 0.0112147 0.00135129)
(0.0937073 -0.00577229 0.00194914)
(0.10622 -0.00248638 0.00199343)
(0.103679 -0.00192125 0.00190276)
(0.102525 -0.000787766 0.00195008)
(0.102288 -0.000239161 0.00196003)
(0.102289 0.000205438 0.00196018)
(0.102529 0.000757826 0.00194902)
(0.103691 0.00188676 0.00190149)
(0.106251 0.002415 0.00199496)
(0.0936883 0.00583765 0.00194986)
(0.0918526 -0.000552787 0.00161017)
(0.109272 -0.00286479 0.00168457)
(0.106015 -0.00161112 0.00157817)
(0.104402 -0.000644313 0.00161976)
(0.104054 -0.000269008 0.00162845)
(0.104058 0.000196578 0.00162831)
(0.104413 0.000577111 0.00161906)
(0.106024 0.00154532 0.00157725)
(0.109259 0.00279719 0.00168687)
(0.0919089 0.000600798 0.0016066)
(0.0900639 0.00237123 0.00111557)
(0.110049 -0.00315581 0.00116569)
(0.107022 -0.00110996 0.00106042)
(0.105447 -0.000497333 0.00107786)
(0.105099 -0.000288748 0.0010877)
(0.105107 0.000174917 0.00108698)
(0.105469 0.000391663 0.00107717)
(0.10704 0.00100902 0.00105753)
(0.110041 0.00307168 0.00116564)
(0.0901866 -0.00235017 0.0011117)
(0.0890001 0.00372594 0.000708864)
(0.109938 -0.00333181 0.000712879)
(0.107513 -0.000681592 0.000611313)
(0.106076 -0.000497107 0.000620064)
(0.105722 -0.000325111 0.000636723)
(0.105735 0.000160845 0.000636312)
(0.106111 0.000346275 0.000619004)
(0.107546 0.000536955 0.000609963)
(0.109942 0.00323653 0.000708405)
(0.0892184 -0.00381291 0.000701414)
(0.0884892 0.00422083 0.000388982)
(0.109798 -0.00335661 0.000334597)
(0.108045 -0.000311243 0.000214786)
(0.106684 -0.000567058 0.000227664)
(0.106279 -0.000347777 0.000249138)
(0.106298 0.000122426 0.000249172)
(0.106737 0.000362922 0.000226869)
(0.108101 0.00011494 0.000217235)
(0.109826 0.0032427 0.000328535)
(0.088832 -0.00441762 0.000378322)
(0.0881617 0.00428589 0.00013887)
(0.109677 -0.00330691 3.43004e-05)
(0.108617 -6.23794e-06 -0.000124337)
(0.107297 -0.00065441 -0.000103044)
(0.106837 -0.000343797 -8.54052e-05)
(0.106864 4.25048e-05 -8.50946e-05)
(0.107374 0.000383708 -0.000103718)
(0.108702 -0.000256201 -0.000121897)
(0.109745 0.00315775 2.90508e-05)
(0.0886632 -0.00454985 0.00013203)
(0.0878376 0.00413887 -4.90495e-05)
(0.109518 -0.00322979 -0.000181946)
(0.109128 0.000215774 -0.000389797)
(0.10784 -0.000756935 -0.000355406)
(0.107348 -0.00032555 -0.000349641)
(0.107386 -7.20331e-05 -0.000348919)
(0.107949 0.000402308 -0.000356491)
(0.109254 -0.000562652 -0.000390863)
(0.109643 0.00302792 -0.000190667)
(0.088539 -0.00444088 -4.77526e-05)
(0.0874948 0.00389374 -0.000184225)
(0.109334 -0.00313635 -0.000326789)
(0.109564 0.000358307 -0.000587177)
(0.108299 -0.000877984 -0.000535407)
(0.107795 -0.000308966 -0.000544605)
(0.107848 -0.000212958 -0.000544266)
(0.10845 0.000417014 -0.000536024)
(0.109746 -0.00081165 -0.000591818)
(0.109549 0.00286558 -0.000339682)
(0.0884369 -0.00422945 -0.000176861)
(0.0871354 0.00361995 -0.000280765)
(0.109162 -0.00304179 -0.000415755)
(0.109952 0.000431354 -0.000731674)
(0.1087 -0.00101624 -0.000661339)
(0.1082 -0.00030517 -0.000685796)
(0.10827 -0.00037803 -0.000686751)
(0.108907 0.000418001 -0.000661222)
(0.110212 -0.00102287 -0.00074151)
(0.109501 0.00268029 -0.00043002)
(0.0883828 -0.00399787 -0.000271466)
(0.0867506 0.00332839 -0.000323104)
(0.108976 -0.0029675 -0.000455233)
(0.110312 0.00045223 -0.000846897)
(0.10907 -0.00116813 -0.000746596)
(0.108584 -0.000323996 -0.000785601)
(0.108676 -0.000569169 -0.000789251)
(0.109345 0.000389253 -0.000747567)
(0.110673 -0.00122254 -0.000859856)
(0.109485 0.00248041 -0.000471311)
(0.0883898 -0.00375911 -0.000323347)
(0.0863234 0.00301378 -0.000330242)
(0.108753 -0.00292616 -0.000479507)
(0.110632 0.000415664 -0.000931093)
(0.109409 -0.00133908 -0.000795908)
(0.10895 -0.000375559 -0.000847078)
(0.10907 -0.0007839 -0.000857328)
(0.109773 0.000324738 -0.000803128)
(0.111126 -0.00142013 -0.000950168)
(0.109509 0.00228209 -0.000503263)
(0.0884487 -0.00352247 -0.000334619)
(0.085831 0.00268479 -0.000336117)
(0.108489 -0.00289858 -0.000483675)
(0.110891 0.000311404 -0.00098346)
(0.109705 -0.0015399 -0.000824985)
(0.109285 -0.000471899 -0.000891324)
(0.109447 -0.00102982 -0.000905781)
(0.110191 0.000215038 -0.000830508)
(0.111572 -0.00161094 -0.00101152)
(0.109541 0.00204345 -0.00051146)
(0.0886014 -0.00329869 -0.000335737)
(0.0851938 0.00236738 -0.000335564)
(0.108233 -0.00290758 -0.000480555)
(0.111092 0.000141308 -0.00101465)
(0.109958 -0.00178314 -0.000840077)
(0.10959 -0.000629889 -0.000920035)
(0.109809 -0.00132252 -0.000937449)
(0.110602 4.84705e-05 -0.00084377)
(0.112024 -0.00181912 -0.0010575)
(0.109671 0.00178358 -0.000516384)
(0.0887994 -0.00312412 -0.000334926)
(0.0843801 0.00205004 -0.000327013)
(0.107962 -0.00298719 -0.000464475)
(0.111238 -0.000107209 -0.00102532)
(0.110178 -0.0020855 -0.00084032)
(0.109874 -0.000867303 -0.000930549)
(0.110164 -0.00167177 -0.000954803)
(0.11102 -0.000182949 -0.00084697)
(0.112498 -0.00205726 -0.00108744)
(0.109882 0.00151109 -0.000512724)
(0.0890959 -0.00299143 -0.000327614)
(0.0833517 0.00170862 -0.00030928)
(0.107644 -0.00314155 -0.000432335)
(0.111331 -0.000451786 -0.00101745)
(0.110368 -0.00246468 -0.000828256)
(0.110144 -0.00120293 -0.000926603)
(0.110524 -0.00209273 -0.000960156)
(0.111463 -0.000498298 -0.000840084)
(0.113017 -0.0023445 -0.00110165)
(0.110196 0.00120225 -0.000502551)
(0.0895147 -0.00289274 -0.00031354)
(0.0820486 0.00132887 -0.000277991)
(0.107254 -0.00338257 -0.00038327)
(0.111358 -0.000914342 -0.000990094)
(0.110525 -0.00294385 -0.000803842)
(0.1104 -0.00166237 -0.000908317)
(0.110898 -0.00260931 -0.00095303)
(0.111946 -0.000921613 -0.000821924)
(0.1136 -0.00269963 -0.00110104)
(0.110637 0.000842291 -0.000485804)
(0.0900955 -0.00282756 -0.000289392)
(0.0804012 0.00089607 -0.000225028)
(0.106758 -0.00373288 -0.000313135)
(0.111309 -0.00152412 -0.000939937)
(0.110648 -0.00355289 -0.000764728)
(0.110648 -0.0022787 -0.000874)
(0.111296 -0.00325302 -0.000931522)
(0.112486 -0.00148363 -0.000792112)
(0.114274 -0.00314741 -0.00108553)
(0.111237 0.000412569 -0.000460686)
(0.0908851 -0.00279934 -0.000252527)
(0.0783239 0.000395118 -0.000141101)
(0.10611 -0.00421588 -0.00021476)
(0.111175 -0.00231858 -0.000859286)
(0.110736 -0.00432909 -0.000706013)
(0.11089 -0.00309331 -0.000819113)
(0.111729 -0.00406336 -0.000892039)
(0.113105 -0.00222349 -0.000748159)
(0.115069 -0.00372097 -0.00105417)
(0.112045 -0.000111133 -0.000425222)
(0.0919462 -0.00281258 -0.000199042)
(0.0757163 -0.000183746 -1.37687e-05)
(0.105254 -0.00485383 -7.6417e-05)
(0.11094 -0.00334325 -0.000736859)
(0.110787 -0.00531834 -0.000619466)
(0.111134 -0.00415653 -0.000737306)
(0.112213 -0.00509082 -0.000829008)
(0.113829 -0.0031916 -0.000685437)
(0.116026 -0.00446383 -0.00100251)
(0.113124 -0.000761683 -0.000375617)
(0.0933598 -0.00287909 -0.000123083)
(0.0724619 -0.000838034 0.000179029)
(0.104109 -0.00568114 0.000120251)
(0.110594 -0.00465034 -0.000559854)
(0.110799 -0.00657803 -0.00049347)
(0.111382 -0.00553015 -0.000618099)
(0.112761 -0.00640097 -0.000732799)
(0.11469 -0.00445512 -0.000595812)
(0.117199 -0.00543531 -0.000922867)
(0.114559 -0.00158418 -0.000305331)
(0.0952386 -0.00301235 -1.63821e-05)
(0.0684694 -0.00155882 0.000466676)
(0.102553 -0.00672332 0.000401503)
(0.110109 -0.00629807 -0.000306433)
(0.110767 -0.00817686 -0.000310409)
(0.111637 -0.00728931 -0.000445912)
(0.113388 -0.00807904 -0.000589388)
(0.115727 -0.00610411 -0.000467432)
(0.118658 -0.00671977 -0.000803696)
(0.116465 -0.00264308 -0.000203478)
(0.0977351 -0.00323947 0.000133335)
(0.0636721 -0.00231974 0.000881104)
(0.100428 -0.00797225 0.000799822)
(0.109444 -0.00833222 5.18868e-05)
(0.110684 -0.0101917 -4.4484e-05)
(0.111894 -0.00952249 -0.000199259)
(0.114102 -0.0102349 -0.000378986)
(0.11698 -0.00826249 -0.000282604)
(0.120491 -0.00844143 -0.000627987)
(0.118999 -0.00403544 -5.47491e-05)
(0.101068 -0.00359711 0.00034417)
(0.0580366 -0.00306027 0.00144559)
(0.097555 -0.00939822 0.00135241)
(0.10852 -0.0107741 0.000553003)
(0.110528 -0.0127036 0.000340494)
(0.112135 -0.0123324 0.000151722)
(0.114895 -0.0130122 -7.43011e-05)
(0.118484 -0.0111037 -1.71803e-05)