/*--------------------------------*- C++ -*----------------------------------*\
| =========                 |                                                 |
| \\      /  F ield         | OpenFOAM: The Open Source CFD Toolbox           |
|  \\    /   O peration     | Version:  4.1                                   |
|   \\  /    A nd           | Web:      www.OpenFOAM.org                      |
|    \\/     M anipulation  |                                                 |
\*---------------------------------------------------------------------------*/
FoamFile
{
    version     2.0;
    format      ascii;
    class       volScalarField;
    location    "5";
    object      T;
}
// * * * * * * * * * * * * * * * * * * * * * * * * * * * * * * * * * * * * * //

dimensions      [0 0 0 1 0 0 0];

internalField   nonuniform List<scalar> 
12000
(
0.989248
0.993818
0.990313
0.99108
0.991102
0.991102
0.991079
0.990316
0.993837
0.989232
0.942646
0.946883
0.947246
0.948898
0.948968
0.948965
0.948899
0.947266
0.946945
0.942648
0.874026
0.875846
0.881238
0.882788
0.882852
0.882862
0.882814
0.881308
0.875956
0.874091
0.77312
0.776345
0.785073
0.78641
0.786608
0.786617
0.786477
0.7852
0.77651
0.773303
0.644381
0.650727
0.661304
0.663016
0.663626
0.66361
0.663132
0.661509
0.650987
0.644733
0.503372
0.512051
0.523171
0.525502
0.526525
0.526545
0.525668
0.523453
0.512457
0.50392
0.367328
0.376754
0.387187
0.389905
0.391142
0.391227
0.390113
0.387536
0.377287
0.368048
0.2498
0.258514
0.267352
0.270069
0.271309
0.271421
0.270302
0.267749
0.259111
0.250622
0.158137
0.165212
0.172023
0.174394
0.17548
0.175589
0.17463
0.172423
0.165801
0.158965
0.0932202
0.098351
0.103145
0.104983
0.105832
0.105924
0.1052
0.103511
0.0988723
0.0939633
0.0512339
0.0545969
0.0576945
0.0589768
0.0595749
0.0596464
0.0591551
0.0579968
0.0550177
0.0518365
0.026301
0.0283134
0.0301574
0.0309696
0.0313538
0.0314059
0.0311042
0.0303854
0.0286247
0.0267466
0.0126394
0.0137478
0.0147624
0.0152337
0.0154611
0.0154964
0.0153277
0.0149205
0.0139602
0.0129419
0.00570011
0.00626567
0.00678416
0.00703669
0.00716139
0.00718372
0.0070975
0.0068856
0.00640041
0.0058898
0.00241863
0.00268752
0.00293482
0.00306056
0.00312435
0.00313759
0.00309713
0.00299535
0.00276734
0.00252925
0.000968089
0.00108787
0.00119845
0.00125704
0.00128765
0.00129502
0.00127759
0.00123225
0.0011322
0.00102843
0.000366448
0.00041671
0.000463281
0.000488989
0.000502839
0.000506709
0.00049983
0.000481038
0.000439876
0.000397408
0.000131486
0.000151449
0.000170016
0.000180693
0.000186638
0.000188558
0.000186092
0.000178824
0.000162893
0.000146496
4.48145e-05
5.23523e-05
5.93939e-05
6.36148e-05
6.60481e-05
6.69525e-05
6.61636e-05
6.35389e-05
5.77185e-05
5.17204e-05
1.45337e-05
1.72494e-05
1.98025e-05
2.13989e-05
2.23534e-05
2.27587e-05
2.2544e-05
2.16601e-05
1.96479e-05
1.75603e-05
4.49052e-06
5.42634e-06
6.31571e-06
6.89609e-06
7.25656e-06
7.43001e-06
7.3875e-06
7.11152e-06
6.45222e-06
5.75857e-06
1.32283e-06
1.63151e-06
1.93046e-06
2.13419e-06
2.26578e-06
2.33683e-06
2.33634e-06
2.25757e-06
2.05295e-06
1.8323e-06
3.71639e-07
4.68975e-07
5.66214e-07
6.35518e-07
6.82104e-07
7.10043e-07
7.15493e-07
6.95685e-07
6.35766e-07
5.6848e-07
9.95834e-08
1.28813e-07
1.59422e-07
1.82321e-07
1.98357e-07
2.0893e-07
2.12834e-07
2.08922e-07
1.92557e-07
1.72919e-07
2.54654e-08
3.37671e-08
4.30533e-08
5.03995e-08
5.57761e-08
5.96373e-08
6.16557e-08
6.13788e-08
5.73364e-08
5.18901e-08
6.22803e-09
8.43759e-09
1.1127e-08
1.34038e-08
1.51591e-08
1.65224e-08
1.74236e-08
1.77019e-08
1.68809e-08
1.54794e-08
1.46309e-09
2.00836e-09
2.74125e-09
3.41551e-09
3.97132e-09
4.43709e-09
4.80415e-09
5.02506e-09
4.94552e-09
4.63407e-09
3.32788e-10
4.57159e-10
6.41106e-10
8.28136e-10
9.96481e-10
1.14952e-09
1.2885e-09
1.40411e-09
1.45132e-09
1.41223e-09
7.33851e-11
9.99288e-11
1.42e-10
1.89387e-10
2.36829e-10
2.84324e-10
3.33377e-10
3.84338e-10
4.28796e-10
4.45893e-10
1.51988e-11
2.0339e-11
2.92673e-11
3.99191e-11
5.16051e-11
6.45352e-11
7.97913e-11
9.87934e-11
1.2508e-10
1.51463e-10
0.993828
0.997631
0.994157
0.995093
0.99506
0.995058
0.995092
0.994159
0.997675
0.993783
0.946898
0.950791
0.951399
0.953435
0.953438
0.95344
0.953433
0.951413
0.95091
0.946883
0.875855
0.879229
0.884687
0.886202
0.886175
0.886176
0.886215
0.884748
0.879379
0.875878
0.776337
0.781814
0.791019
0.792004
0.79207
0.792088
0.792047
0.791141
0.782028
0.776466
0.650687
0.659673
0.671211
0.672455
0.67292
0.672986
0.672546
0.671402
0.659992
0.650993
0.511973
0.523726
0.535943
0.537868
0.538846
0.538924
0.53801
0.536209
0.524131
0.51251
0.376639
0.389263
0.400758
0.403243
0.404559
0.404621
0.403431
0.401091
0.389744
0.377382
0.258373
0.270022
0.279834
0.282483
0.283858
0.283917
0.282702
0.280205
0.270557
0.259232
0.165063
0.174533
0.182179
0.184602
0.185819
0.185882
0.184829
0.182557
0.17508
0.165929
0.0982118
0.105098
0.110552
0.112498
0.113448
0.113511
0.112709
0.110901
0.105605
0.0989901
0.0544797
0.0590153
0.0625835
0.0639775
0.064646
0.0647023
0.0641565
0.0628757
0.0594397
0.0551143
0.0282238
0.0309522
0.033101
0.0340039
0.034433
0.0344778
0.0341421
0.0333255
0.0312756
0.0286966
0.0136852
0.0151936
0.0163907
0.0169247
0.0171781
0.0172105
0.0170223
0.0165493
0.0154199
0.0140088
0.00622546
0.00699721
0.00761651
0.00790732
0.00804613
0.00806758
0.007971
0.00772015
0.00714332
0.00643043
0.0026636
0.00303123
0.00332998
0.00347689
0.00354787
0.00356102
0.00351553
0.00339292
0.00311879
0.00278442
0.00107464
0.00123858
0.00137359
0.00144285
0.00147695
0.00148444
0.00146476
0.00140927
0.00128759
0.0011412
0.000409885
0.000478663
0.000536092
0.00056675
0.000582221
0.00058622
0.000578418
0.000555064
0.000504454
0.000444291
0.000148154
0.00017543
0.000198533
0.000211349
0.000218015
0.000220024
0.000217206
0.000208044
0.000188247
0.000164923
5.08624e-05
6.11289e-05
6.99622e-05
7.5051e-05
7.77915e-05
7.87464e-05
7.78347e-05
7.44771e-05
6.71704e-05
5.86038e-05
1.66178e-05
2.02988e-05
2.35239e-05
2.54538e-05
2.6534e-05
2.69651e-05
2.67115e-05
2.55621e-05
2.30105e-05
2.00176e-05
5.17543e-06
6.43655e-06
7.56593e-06
8.2687e-06
8.67866e-06
8.86432e-06
8.81102e-06
8.44469e-06
7.59983e-06
6.60159e-06
1.53835e-06
1.95199e-06
2.33289e-06
2.57974e-06
2.73013e-06
2.80671e-06
2.8038e-06
2.69615e-06
2.43073e-06
2.11191e-06
4.368e-07
5.66742e-07
6.9084e-07
7.74834e-07
8.28332e-07
8.58687e-07
8.63855e-07
8.35391e-07
7.56446e-07
6.58728e-07
1.18543e-07
1.57594e-07
1.96706e-07
2.24472e-07
2.4298e-07
2.54579e-07
2.58606e-07
2.5228e-07
2.30218e-07
2.01468e-07
3.07638e-08
4.19576e-08
5.38699e-08
6.27975e-08
6.90374e-08
7.33215e-08
7.54682e-08
7.45798e-08
6.89068e-08
6.08174e-08
7.64085e-09
1.06858e-08
1.41772e-08
1.69652e-08
1.9017e-08
2.05492e-08
2.15282e-08
2.16763e-08
2.04133e-08
1.82672e-08
1.81984e-09
2.59995e-09
3.57688e-09
4.41843e-09
5.07579e-09
5.6067e-09
6.01352e-09
6.2187e-09
6.02949e-09
5.51463e-09
4.17572e-10
6.044e-10
8.62032e-10
1.10491e-09
1.30885e-09
1.48653e-09
1.64404e-09
1.76512e-09
1.79062e-09
1.69865e-09
9.26482e-11
1.34435e-10
1.97678e-10
2.63602e-10
3.23991e-10
3.80902e-10
4.38049e-10
4.94922e-10
5.38678e-10
5.43838e-10
1.94498e-11
2.80105e-11
4.21155e-11
5.83866e-11
7.47575e-11
9.14858e-11
1.10295e-10
1.32913e-10
1.62329e-10
1.87916e-10
0.990322
0.994157
0.990299
0.991053
0.991019
0.991018
0.991052
0.990304
0.994211
0.990264
0.947262
0.951402
0.952028
0.95407
0.954117
0.954114
0.95406
0.95203
0.951518
0.947234
0.881244
0.884685
0.890317
0.891906
0.891895
0.891893
0.891911
0.890379
0.884843
0.881239
0.785047
0.791001
0.800314
0.801179
0.80124
0.801252
0.801216
0.800433
0.791199
0.78517
0.661222
0.67117
0.682811
0.683788
0.684291
0.684328
0.683869
0.682991
0.671444
0.661547
0.523023
0.535878
0.54827
0.549912
0.550961
0.551008
0.550045
0.548527
0.536251
0.523572
0.386978
0.40067
0.412407
0.41464
0.416015
0.416069
0.414823
0.412733
0.401145
0.38772
0.267107
0.279731
0.289806
0.29226
0.293672
0.293737
0.292479
0.290178
0.280273
0.267966
0.171768
0.182073
0.189972
0.192264
0.193503
0.193575
0.192492
0.190353
0.18263
0.172646
0.10291
0.110455
0.116127
0.117998
0.118964
0.119034
0.118211
0.11648
0.110974
0.103707
0.0574997
0.0625028
0.066242
0.067603
0.0682836
0.068345
0.0677834
0.0665399
0.0629409
0.0581519
0.0300103
0.0330398
0.0353113
0.0362048
0.0366433
0.0366915
0.0363445
0.0355413
0.0333772
0.0304978
0.0146608
0.0163478
0.0176244
0.0181594
0.0184198
0.0184544
0.0182588
0.0177877
0.0165861
0.0149959
0.00671931
0.00758888
0.0082551
0.00854982
0.00869344
0.00871626
0.00861518
0.0083624
0.00774396
0.00693256
0.00289629
0.0033135
0.00363776
0.00378826
0.00386222
0.00387617
0.0038282
0.00370327
0.00340717
0.00302254
0.00117711
0.00136441
0.00151225
0.00158395
0.00161973
0.00162768
0.00160675
0.00154961
0.00141722
0.00124697
0.000452216
0.000531299
0.000594722
0.00062678
0.000643123
0.000647374
0.00063899
0.000614707
0.000559231
0.000488529
0.000164624
0.000196176
0.000221898
0.000235428
0.000242512
0.000244654
0.000241591
0.000231971
0.000210108
0.000182431
5.69198e-05
6.88652e-05
7.87738e-05
8.41949e-05
8.71233e-05
8.81445e-05
8.71387e-05
8.35798e-05
7.54493e-05
6.51921e-05
1.87311e-05
2.3039e-05
2.66818e-05
2.87548e-05
2.99146e-05
3.03773e-05
3.00912e-05
2.88613e-05
2.59998e-05
2.23866e-05
5.87759e-06
7.36185e-06
8.64574e-06
9.40635e-06
9.84831e-06
1.00484e-05
9.98524e-06
9.58935e-06
8.6342e-06
7.41975e-06
1.76132e-06
2.25101e-06
2.68658e-06
2.95561e-06
3.11833e-06
3.20112e-06
3.19582e-06
3.0782e-06
2.77556e-06
2.38474e-06
5.04705e-07
6.59547e-07
8.02264e-07
8.94388e-07
9.52462e-07
9.85388e-07
9.90224e-07
9.58694e-07
8.67812e-07
7.47091e-07
1.38437e-07
1.85351e-07
2.30606e-07
2.61243e-07
2.81393e-07
2.94013e-07
2.98137e-07
2.9097e-07
2.65273e-07
2.29446e-07
3.63846e-08
4.99811e-08
6.38699e-08
7.37847e-08
8.05964e-08
8.52698e-08
8.75319e-08
8.64532e-08
7.97354e-08
6.95429e-08
9.17355e-09
1.29321e-08
1.70483e-08
2.01705e-08
2.24164e-08
2.40913e-08
2.51392e-08
2.52632e-08
2.37219e-08
2.09726e-08
2.22196e-09
3.20958e-09
4.38228e-09
5.33653e-09
6.05842e-09
6.63942e-09
7.07953e-09
7.29303e-09
7.03918e-09
6.35828e-09
5.18302e-10
7.64003e-10
1.083e-09
1.36437e-09
1.58968e-09
1.78412e-09
1.95588e-09
2.08627e-09
2.10199e-09
1.96758e-09
1.16741e-10
1.74457e-10
2.56641e-10
3.35933e-10
4.03644e-10
4.65957e-10
5.28658e-10
5.9114e-10
6.36986e-10
6.33343e-10
2.48505e-11
3.74167e-11
5.69713e-11
7.76712e-11
9.66054e-11
1.15055e-10
1.35818e-10
1.61058e-10
1.93884e-10
2.20087e-10
0.991088
0.995093
0.991053
0.991856
0.991827
0.991824
0.991853
0.991055
0.99515
0.991027
0.94891
0.953437
0.954069
0.9563
0.956356
0.95635
0.956285
0.954069
0.953556
0.948881
0.882789
0.886191
0.8919
0.893677
0.893648
0.893644
0.893678
0.891964
0.886349
0.882772
0.786382
0.791962
0.801159
0.802032
0.802033
0.802042
0.802068
0.801276
0.792152
0.786495
0.662906
0.672385
0.683753
0.684577
0.685
0.685029
0.684659
0.683934
0.672653
0.663221
0.525303
0.537755
0.549855
0.551258
0.552218
0.55227
0.551391
0.55011
0.538143
0.525831
0.389633
0.40308
0.414565
0.41654
0.417825
0.417895
0.416722
0.414886
0.403575
0.390366
0.26974
0.282292
0.292176
0.294401
0.295733
0.295814
0.294617
0.29254
0.282847
0.270614
0.17405
0.184406
0.192178
0.194296
0.195473
0.195558
0.194521
0.192553
0.184972
0.17495
0.104665
0.112318
0.117919
0.119676
0.1206
0.120678
0.119887
0.118268
0.112842
0.105487
0.0587106
0.063828
0.0675366
0.0688311
0.069487
0.0695532
0.06901
0.0678324
0.0642692
0.0593883
0.0307667
0.0338906
0.036154
0.0370131
0.0374386
0.0374895
0.0371521
0.0363833
0.0342293
0.0312767
0.0150923
0.0168456
0.0181236
0.0186428
0.0188973
0.0189334
0.0187421
0.018287
0.0170841
0.0154449
0.00694582
0.00785613
0.00852642
0.00881487
0.0089562
0.00897985
0.00888051
0.00863416
0.00801142
0.00717109
0.00300638
0.00344608
0.00377403
0.00392243
0.00399571
0.00401013
0.00396274
0.00384003
0.00354011
0.00314006
0.00122691
0.00142553
0.00157587
0.00164705
0.00168273
0.00169095
0.00167016
0.00161363
0.00147879
0.00130096
0.00047329
0.000557609
0.000622479
0.000654513
0.00067091
0.000675305
0.000666937
0.000642753
0.000585952
0.000511788
0.000173008
0.000206802
0.000233269
0.000246876
0.000254024
0.000256241
0.00025317
0.000243531
0.000221032
0.000191882
6.00683e-05
7.29109e-05
8.31696e-05
8.86554e-05
9.16255e-05
9.26842e-05
9.16731e-05
8.80865e-05
7.96782e-05
6.88347e-05
1.98519e-05
2.44977e-05
2.82926e-05
3.04032e-05
3.15852e-05
3.20658e-05
3.1778e-05
3.05321e-05
2.75588e-05
2.37252e-05
6.25713e-06
7.86211e-06
9.20784e-06
9.98684e-06
1.04392e-05
1.06474e-05
1.05843e-05
1.01815e-05
9.1845e-06
7.89149e-06
1.88403e-06
2.41487e-06
2.8742e-06
3.15132e-06
3.31854e-06
3.40488e-06
3.40003e-06
3.27988e-06
2.96259e-06
2.54511e-06
5.42716e-07
7.11017e-07
8.6242e-07
9.57851e-07
1.01775e-06
1.05214e-06
1.05737e-06
1.02508e-06
9.29382e-07
8.00004e-07
1.49756e-07
2.00911e-07
2.49207e-07
2.81125e-07
3.01978e-07
3.15181e-07
3.19544e-07
3.12205e-07
2.85032e-07
2.46509e-07
3.96334e-08
5.45225e-08
6.94368e-08
7.98282e-08
8.69009e-08
9.17961e-08
9.41825e-08
9.30948e-08
8.59597e-08
7.49617e-08
1.00734e-08
1.42146e-08
1.8666e-08
2.19601e-08
2.42998e-08
2.60554e-08
2.71613e-08
2.73054e-08
2.56612e-08
2.26826e-08
2.46245e-09
3.56054e-09
4.83983e-09
5.85441e-09
6.60889e-09
7.21797e-09
7.68291e-09
7.91323e-09
7.6415e-09
6.90021e-09
5.79935e-10
8.56877e-10
1.20902e-09
1.51094e-09
1.74713e-09
1.95075e-09
2.13232e-09
2.2724e-09
2.28974e-09
2.14225e-09
1.31728e-10
1.98051e-10
2.90292e-10
3.76326e-10
4.47469e-10
5.12522e-10
5.78753e-10
6.4592e-10
6.95864e-10
6.91515e-10
2.82324e-11
4.30117e-11
6.54162e-11
8.81456e-11
1.08031e-10
1.27145e-10
1.48978e-10
1.76072e-10
2.11913e-10
2.40404e-10
0.99111
0.995059
0.991019
0.991826
0.991791
0.99179
0.991822
0.991019
0.995117
0.991048
0.948977
0.953439
0.954116
0.956356
0.956396
0.956389
0.956337
0.954114
0.953566
0.948948
0.882848
0.886158
0.891886
0.893647
0.893588
0.893584
0.893644
0.89195
0.886321
0.882835
0.786539
0.792035
0.801217
0.802025
0.801982
0.801991
0.802058
0.801332
0.79222
0.78666
0.663432
0.672863
0.684242
0.68498
0.68536
0.685388
0.68506
0.684419
0.673126
0.663754
0.526245
0.538715
0.550863
0.552182
0.553113
0.553163
0.552315
0.551113
0.539096
0.526783
0.390805
0.404337
0.415873
0.417773
0.419044
0.419111
0.417954
0.416188
0.404821
0.391555
0.270926
0.283577
0.293502
0.295668
0.296992
0.297072
0.295883
0.293865
0.284128
0.271813
0.175085
0.185521
0.193327
0.195403
0.196576
0.19666
0.195627
0.193704
0.186092
0.175993
0.105462
0.113173
0.118801
0.120532
0.121453
0.121532
0.120743
0.119154
0.113706
0.106292
0.0592611
0.0644183
0.0681477
0.0694277
0.070082
0.0701486
0.0696071
0.0684477
0.0648679
0.0599461
0.0311116
0.0342614
0.0365396
0.0373918
0.0378165
0.037868
0.0375314
0.0367725
0.0346064
0.0316283
0.0152899
0.0170592
0.0183471
0.0188636
0.0191179
0.0191544
0.0189636
0.0185132
0.0173021
0.0156481
0.00705014
0.0079698
0.00864623
0.00893383
0.00907521
0.00909915
0.00900001
0.00875566
0.00812795
0.00727922
0.00305746
0.0035022
0.00383365
0.00398198
0.00405542
0.00407003
0.00402269
0.00390071
0.00359809
0.00319342
0.00125022
0.00145136
0.00160355
0.00167488
0.0017107
0.00171903
0.00169825
0.00164195
0.00150574
0.00132556
0.000483253
0.000568748
0.000634521
0.000666705
0.0006832
0.00068766
0.000679291
0.000655156
0.000597709
0.000522439
0.000177008
0.000211322
0.0002382
0.000251904
0.000259111
0.000261362
0.00025829
0.000248654
0.00022587
0.000196237
6.15835e-05
7.46441e-05
8.5078e-05
9.06164e-05
9.36171e-05
9.46935e-05
9.36823e-05
9.00914e-05
8.15657e-05
7.0524e-05
2.03954e-05
2.51282e-05
2.89936e-05
3.11295e-05
3.2326e-05
3.28152e-05
3.25279e-05
3.12789e-05
2.82604e-05
2.43505e-05
6.44234e-06
8.08055e-06
9.45327e-06
1.02433e-05
1.07022e-05
1.09143e-05
1.08518e-05
1.04476e-05
9.4342e-06
8.11347e-06
1.94421e-06
2.4872e-06
2.95643e-06
3.23809e-06
3.40801e-06
3.49607e-06
3.49164e-06
3.37104e-06
3.04817e-06
2.62112e-06
5.61403e-07
7.3398e-07
8.88883e-07
9.86078e-07
1.04705e-06
1.08216e-06
1.08765e-06
1.05526e-06
9.57784e-07
8.25266e-07
1.55309e-07
2.07915e-07
2.57415e-07
2.8999e-07
3.11251e-07
3.24745e-07
3.29245e-07
3.21915e-07
2.94216e-07
2.5471e-07
4.12132e-08
5.65768e-08
7.18972e-08
8.25254e-08
8.97482e-08
9.47565e-08
9.72094e-08
9.6146e-08
8.8872e-08
7.75818e-08
1.05034e-08
1.47937e-08
1.93795e-08
2.27568e-08
2.51499e-08
2.6948e-08
2.80839e-08
2.82464e-08
2.65728e-08
2.35131e-08
2.57432e-09
3.71703e-09
5.03981e-09
6.08291e-09
6.85578e-09
7.48005e-09
7.9578e-09
8.19877e-09
7.92495e-09
7.16363e-09
6.07686e-10
8.97271e-10
1.26298e-09
1.57433e-09
1.81655e-09
2.02531e-09
2.21199e-09
2.35745e-09
2.37763e-09
2.22677e-09
1.38256e-10
2.07954e-10
3.04192e-10
3.93154e-10
4.66137e-10
5.32788e-10
6.00892e-10
6.70494e-10
7.22976e-10
7.1917e-10
2.9669e-11
4.52718e-11
6.87443e-11
9.22745e-11
1.12633e-10
1.32158e-10
1.54572e-10
1.82592e-10
2.1997e-10
2.49908e-10
0.99111
0.995058
0.991019
0.991826
0.991792
0.991789
0.991821
0.991019
0.995117
0.991048
0.948975
0.953439
0.954115
0.956355
0.956394
0.956388
0.956337
0.954115
0.953564
0.948945
0.882848
0.886155
0.891883
0.893643
0.893583
0.89358
0.893642
0.891949
0.886317
0.882831
0.786538
0.792029
0.801215
0.802021
0.801977
0.801986
0.802055
0.80133
0.792216
0.786657
0.66343
0.672857
0.684241
0.684978
0.685357
0.685383
0.685057
0.684418
0.673123
0.663748
0.52624
0.538711
0.550863
0.552179
0.55311
0.553158
0.552312
0.551113
0.539092
0.526775
0.390804
0.404331
0.415869
0.417769
0.41904
0.419107
0.417952
0.416187
0.404817
0.391549
0.270926
0.283572
0.293499
0.295663
0.296988
0.297068
0.295879
0.293862
0.284124
0.271807
0.175078
0.185521
0.193325
0.195398
0.196572
0.196656
0.195624
0.193701
0.186089
0.175985
0.105452
0.113176
0.118801
0.120528
0.12145
0.121529
0.12074
0.119152
0.113705
0.106285
0.0592529
0.0644207
0.0681478
0.069425
0.0700795
0.0701464
0.0696052
0.0684461
0.0648663
0.0599417
0.0311066
0.0342626
0.0365395
0.03739
0.0378147
0.0378664
0.0375301
0.0367712
0.0346048
0.0316261
0.0152872
0.0170597
0.0183469
0.0188624
0.0191167
0.0191533
0.0189626
0.0185122
0.0173009
0.015647
0.00704876
0.00796987
0.00864594
0.00893317
0.00907452
0.00909852
0.00899942
0.00875501
0.00812723
0.00727868
0.0030568
0.00350215
0.00383345
0.00398162
0.00405503
0.00406967
0.00402234
0.00390034
0.0035977
0.00319313
0.00124992
0.0014513
0.00160343
0.00167469
0.00171051
0.00171884
0.00169807
0.00164176
0.00150555
0.00132539
0.000483117
0.000568705
0.000634453
0.000666612
0.000683105
0.000687567
0.000679202
0.000655067
0.000597621
0.000522355
0.000176952
0.000211297
0.000238166
0.000251862
0.000259067
0.00026132
0.00025825
0.000248614
0.00022583
0.0001962
6.15612e-05
7.46311e-05
8.50626e-05
9.05982e-05
9.35982e-05
9.46751e-05
9.36647e-05
9.00738e-05
8.15477e-05
7.05089e-05
2.0387e-05
2.51221e-05
2.8987e-05
3.1122e-05
3.23183e-05
3.28076e-05
3.25206e-05
3.12715e-05
2.82524e-05
2.43446e-05
6.43933e-06
8.078e-06
9.4506e-06
1.02404e-05
1.06992e-05
1.09113e-05
1.08489e-05
1.04445e-05
9.43087e-06
8.11117e-06
1.94317e-06
2.4862e-06
2.95541e-06
3.23701e-06
3.40688e-06
3.49491e-06
3.49051e-06
3.36982e-06
3.04682e-06
2.6202e-06
5.61063e-07
7.3362e-07
8.88517e-07
9.85693e-07
1.04664e-06
1.08173e-06
1.08722e-06
1.05478e-06
9.57251e-07
8.24894e-07
1.55205e-07
2.07794e-07
2.57291e-07
2.89858e-07
3.11107e-07
3.24589e-07
3.29084e-07
3.21735e-07
2.94011e-07
2.54558e-07
4.11842e-08
5.65397e-08
7.18579e-08
8.24826e-08
8.96996e-08
9.47017e-08
9.71505e-08
9.60794e-08
8.87949e-08
7.75201e-08
1.04966e-08
1.47835e-08
1.9368e-08
2.27438e-08
2.51345e-08
2.69296e-08
2.80631e-08
2.82222e-08
2.65446e-08
2.34886e-08
2.57318e-09
3.71475e-09
5.03685e-09
6.07933e-09
6.85123e-09
7.47426e-09
7.95079e-09
8.19025e-09
7.91482e-09
7.15413e-09
6.07687e-10
8.96963e-10
1.26241e-09
1.57352e-09
1.8154e-09
2.0237e-09
2.20985e-09
2.35466e-09
2.37413e-09
2.22326e-09
1.38356e-10
2.08001e-10
3.04164e-10
3.9305e-10
4.65927e-10
5.32419e-10
6.00318e-10
6.69653e-10
7.21798e-10
7.17892e-10
2.97116e-11
4.53196e-11
6.87861e-11
9.23058e-11
1.12644e-10
1.32132e-10
1.54487e-10
1.82418e-10
2.19659e-10
2.49517e-10
0.991087
0.995093
0.991052
0.991854
0.991824
0.991822
0.99185
0.991051
0.995149
0.991025
0.948908
0.953427
0.954057
0.956287
0.95634
0.956335
0.956269
0.954054
0.953547
0.948868
0.882782
0.886186
0.891893
0.893666
0.893632
0.893631
0.893666
0.891953
0.886338
0.88277
0.786386
0.791952
0.801155
0.802026
0.802022
0.802032
0.802064
0.801275
0.792141
0.786494
0.662934
0.672355
0.68375
0.684573
0.684994
0.685021
0.684659
0.683934
0.672641
0.663221
0.525309
0.537732
0.549858
0.551251
0.552214
0.552261
0.551389
0.550106
0.538116
0.525842
0.389607
0.403076
0.41457
0.416531
0.41782
0.417887
0.416716
0.414881
0.403549
0.390363
0.269706
0.282297
0.292179
0.294392
0.295727
0.295806
0.294608
0.292537
0.282835
0.27059
0.174021
0.184411
0.192178
0.194287
0.195466
0.19555
0.194512
0.19255
0.184968
0.174921
0.104644
0.11232
0.117917
0.119667
0.120593
0.120671
0.119879
0.118266
0.112841
0.105463
0.0586975
0.0638276
0.0675335
0.0688244
0.0694809
0.0695472
0.069004
0.067831
0.0642687
0.0593711
0.0307593
0.0338892
0.036151
0.0370084
0.037434
0.0374852
0.0371478
0.0363821
0.0342288
0.0312656
0.0150883
0.0168441
0.0181213
0.0186398
0.0188943
0.0189306
0.0187394
0.0182861
0.0170837
0.0154383
0.00694371
0.00785494
0.00852491
0.00881308
0.00895436
0.00897813
0.00887887
0.00863354
0.00801109
0.00716747
0.00300532
0.00344529
0.00377312
0.00392144
0.0039947
0.00400918
0.00396183
0.00383962
0.00353988
0.00313823
0.00122641
0.00142507
0.00157537
0.00164654
0.00168221
0.00169046
0.00166969
0.00161338
0.00147863
0.00130011
0.000473066
0.000557367
0.000622226
0.000654265
0.000670662
0.000675071
0.000666713
0.000642617
0.000585857
0.000511417
0.000172912
0.000206686
0.000233151
0.000246764
0.000253912
0.000256136
0.00025307
0.000243462
0.00022098
0.000191729
6.0029e-05
7.28593e-05
8.31184e-05
8.86075e-05
9.15782e-05
9.26396e-05
9.16302e-05
8.80543e-05
7.96518e-05
6.87746e-05
1.98367e-05
2.44762e-05
2.82715e-05
3.03839e-05
3.15661e-05
3.20477e-05
3.17605e-05
3.05178e-05
2.75463e-05
2.37024e-05
6.25157e-06
7.85367e-06
9.1996e-06
9.9794e-06
1.04319e-05
1.06403e-05
1.05774e-05
1.01754e-05
9.17887e-06
7.88289e-06
1.88211e-06
2.41175e-06
2.87113e-06
3.14858e-06
3.31583e-06
3.40219e-06
3.39735e-06
3.27737e-06
2.96017e-06
2.54187e-06
5.42089e-07
7.09938e-07
8.61328e-07
9.56875e-07
1.01677e-06
1.05115e-06
1.05635e-06
1.02407e-06
9.28374e-07
7.9878e-07
1.49564e-07
2.00562e-07
2.48837e-07
2.8079e-07
3.01638e-07
3.1482e-07
3.19163e-07
3.11811e-07
2.84623e-07
2.46042e-07
3.95791e-08
5.44177e-08
6.93186e-08
7.97175e-08
8.67858e-08
9.16687e-08
9.4042e-08
9.29427e-08
8.57975e-08
7.47825e-08
1.00594e-08
1.41858e-08
1.86307e-08
2.19254e-08
2.42625e-08
2.60121e-08
2.71108e-08
2.72481e-08
2.55985e-08
2.26139e-08
2.45937e-09
3.55347e-09
4.83022e-09
5.84429e-09
6.5976e-09
7.20408e-09
7.66556e-09
7.89224e-09
7.61772e-09
6.87394e-09
5.79486e-10
8.55451e-10
1.20677e-09
1.50838e-09
1.74413e-09
1.94678e-09
2.12688e-09
2.2652e-09
2.28109e-09
2.13252e-09
1.31765e-10
1.97869e-10
2.89884e-10
3.75813e-10
4.46836e-10
5.11578e-10
5.77251e-10
6.43626e-10
6.92781e-10
6.87873e-10
2.82759e-11
4.30253e-11
6.53927e-11
8.81192e-11
1.08004e-10
1.27059e-10
1.48737e-10
1.75551e-10
2.11023e-10
2.39258e-10
0.990322
0.994158
0.990299
0.991053
0.991019
0.991017
0.991049
0.990299
0.994213
0.990263
0.947261
0.951398
0.952012
0.954053
0.954102
0.954099
0.954039
0.952012
0.951515
0.947226
0.881253
0.884694
0.890329
0.891919
0.891907
0.891907
0.891924
0.890395
0.884857
0.881247
0.785056
0.790998
0.800327
0.80119
0.801252
0.801264
0.80123
0.800448
0.791194
0.785174
0.661222
0.671154
0.682815
0.683787
0.684294
0.68432
0.683873
0.682995
0.67142
0.661546
0.523007
0.535857
0.548262
0.549895
0.55094
0.550987
0.550036
0.548521
0.536228
0.523551
0.386952
0.40065
0.412389
0.414615
0.415975
0.416044
0.414801
0.41272
0.401133
0.387676
0.267077
0.279713
0.289785
0.292235
0.293629
0.29371
0.292451
0.290161
0.280263
0.267922
0.171742
0.182057
0.189952
0.192241
0.193465
0.19355
0.192465
0.190337
0.182621
0.172609
0.102892
0.110441
0.116109
0.11798
0.118935
0.119014
0.11819
0.116466
0.110964
0.10368
0.0574875
0.062492
0.0662289
0.0675901
0.0682643
0.06833
0.0677684
0.0665299
0.0629332
0.0581337
0.030002
0.033032
0.0353027
0.0361964
0.0366313
0.0366817
0.0363347
0.0355348
0.033372
0.0304858
0.0146558
0.0163426
0.017619
0.0181543
0.0184128
0.0184485
0.0182529
0.0177838
0.0165831
0.0149884
0.00671646
0.00758564
0.00825196
0.00854694
0.00868963
0.00871293
0.00861196
0.00836014
0.00774233
0.00692825
0.00289478
0.0033117
0.00363604
0.00378669
0.00386028
0.00387443
0.00382654
0.00370205
0.00340633
0.00302026
0.00117634
0.0013635
0.00151138
0.00158315
0.0016188
0.00162683
0.00160594
0.00154899
0.00141681
0.00124587
0.000451844
0.000530863
0.000594309
0.000626403
0.000642702
0.000646986
0.000638624
0.000614408
0.000559034
0.000488029
0.000164458
0.000195976
0.000221712
0.00023526
0.000242332
0.000244486
0.000241432
0.000231834
0.000210015
0.000182218
5.68487e-05
6.87783e-05
7.86946e-05
8.41243e-05
8.70494e-05
8.8075e-05
8.7073e-05
8.35201e-05
7.54061e-05
6.51054e-05
1.87022e-05
2.3003e-05
2.66495e-05
2.87265e-05
2.98856e-05
3.03497e-05
3.00649e-05
2.88364e-05
2.59805e-05
2.23524e-05
5.86632e-06
7.34771e-06
8.63309e-06
9.39541e-06
9.83728e-06
1.00377e-05
9.9749e-06
9.57924e-06
8.6258e-06
7.4065e-06
1.75711e-06
2.24568e-06
2.68179e-06
2.95152e-06
3.11423e-06
3.19708e-06
3.19182e-06
3.07416e-06
2.77198e-06
2.37968e-06
5.0319e-07
6.57622e-07
8.00509e-07
8.92889e-07
9.50969e-07
9.83875e-07
9.88688e-07
9.57095e-07
8.66316e-07
7.45159e-07
1.37914e-07
1.84681e-07
2.2998e-07
2.60704e-07
2.80855e-07
2.9345e-07
2.97549e-07
2.90341e-07
2.64658e-07
2.28708e-07
3.62111e-08
4.97558e-08
6.36527e-08
7.35934e-08
8.04043e-08
8.50621e-08
8.73079e-08
8.62077e-08
7.94859e-08
6.92591e-08
9.11789e-09
1.28587e-08
1.69748e-08
2.01039e-08
2.23488e-08
2.40158e-08
2.50547e-08
2.51682e-08
2.36222e-08
2.0863e-08
2.20503e-09
3.18639e-09
4.35794e-09
5.3138e-09
6.0352e-09
6.61279e-09
7.04841e-09
7.25677e-09
6.99979e-09
6.31561e-09
5.13707e-10
7.57064e-10
1.0752e-09
1.35688e-09
1.58205e-09
1.7752e-09
1.94493e-09
2.07284e-09
2.08669e-09
1.95106e-09
1.15643e-10
1.72522e-10
2.54226e-10
3.3354e-10
4.01251e-10
4.63148e-10
5.2501e-10
5.86313e-10
6.31055e-10
6.26731e-10
2.46115e-11
3.69269e-11
5.62802e-11
7.69569e-11
9.59251e-11
1.14295e-10
1.3479e-10
1.59548e-10
1.9176e-10
2.17657e-10
0.993836
0.997667
0.994203
0.995141
0.995108
0.995107
0.995139
0.994207
0.997731
0.993798
0.946915
0.950867
0.951476
0.953514
0.953521
0.953519
0.953508
0.95149
0.951011
0.946913
0.875855
0.87929
0.884756
0.886262
0.886234
0.886236
0.886276
0.884822
0.879471
0.875894
0.776325
0.781826
0.791033
0.792008
0.792084
0.792098
0.792051
0.791145
0.78202
0.776472
0.650671
0.659642
0.671181
0.672429
0.672928
0.672955
0.672515
0.67136
0.659904
0.650982
0.511952
0.523677
0.53589
0.537821
0.538825
0.538871
0.537968
0.536153
0.524037
0.512463
0.376615
0.389211
0.400701
0.403186
0.404498
0.404567
0.403382
0.401038
0.389678
0.37731
0.258349
0.269977
0.279784
0.282431
0.283786
0.283866
0.282651
0.280166
0.270517
0.259159
0.165042
0.174498
0.18214
0.18456
0.185755
0.185839
0.184785
0.182528
0.175054
0.16587
0.0981934
0.105074
0.110524
0.112468
0.113402
0.113478
0.112677
0.11088
0.105588
0.0989479
0.0544669
0.0589976
0.0625638
0.0639587
0.0646162
0.0646802
0.0641347
0.0628616
0.0594274
0.055087
0.0282164
0.0309393
0.0330881
0.0339926
0.0344151
0.0344643
0.0341284
0.0333164
0.0312677
0.0286799
0.0136809
0.0151855
0.0163828
0.0169182
0.0171681
0.0172028
0.0170145
0.0165439
0.0154157
0.0139989
0.00622287
0.00699263
0.00761212
0.00790375
0.0080409
0.00806344
0.00796687
0.00771702
0.0071413
0.0064249
0.00266215
0.00302886
0.00332773
0.00347503
0.00354533
0.00355894
0.0035135
0.00339124
0.00311786
0.00278158
0.00107388
0.00123743
0.0013725
0.00144194
0.00147578
0.00148347
0.00146383
0.00140845
0.00128717
0.00113985
0.000409507
0.000478132
0.000535591
0.000566333
0.000581717
0.000585788
0.000578009
0.000554687
0.000504267
0.000443685
0.000147979
0.000175194
0.000198314
0.000211167
0.000217806
0.000219841
0.000217035
0.000207878
0.000188163
0.000164667
5.07852e-05
6.10283e-05
6.98699e-05
7.49752e-05
7.77084e-05
7.86721e-05
7.7765e-05
7.44069e-05
6.7132e-05
5.85007e-05
1.65848e-05
2.02577e-05
2.34864e-05
2.54233e-05
2.65018e-05
2.69358e-05
2.66838e-05
2.55335e-05
2.2993e-05
1.99775e-05
5.16178e-06
6.42037e-06
7.55123e-06
8.25667e-06
8.66638e-06
8.85294e-06
8.80013e-06
8.43329e-06
7.59198e-06
6.58632e-06
1.53287e-06
1.9458e-06
2.32726e-06
2.57507e-06
2.72548e-06
2.80231e-06
2.79953e-06
2.69165e-06
2.4273e-06
2.10615e-06
4.34685e-07
5.64421e-07
6.8872e-07
7.73028e-07
8.26565e-07
8.56977e-07
8.62161e-07
8.33615e-07
7.54963e-07
6.56542e-07
1.17763e-07
1.56738e-07
1.95916e-07
2.23776e-07
2.42303e-07
2.53907e-07
2.57927e-07
2.51572e-07
2.29585e-07
2.00632e-07
3.04912e-08
4.16479e-08
5.35765e-08
6.25304e-08
6.87756e-08
7.30558e-08
7.51939e-08
7.42943e-08
6.86393e-08
6.0493e-08
7.55138e-09
1.05767e-08
1.40688e-08
1.68631e-08
1.89157e-08
2.04442e-08
2.14174e-08
2.15602e-08
2.03009e-08
1.81393e-08
1.79322e-09
2.56344e-09
3.53733e-09
4.37965e-09
5.0369e-09
5.56567e-09
5.96909e-09
6.17136e-09
5.98234e-09
5.46318e-09
4.10693e-10
5.93342e-10
8.48387e-10
1.09066e-09
1.29429e-09
1.47087e-09
1.62655e-09
1.74583e-09
1.77071e-09
1.67762e-09
9.09395e-11
1.31309e-10
1.933e-10
2.58643e-10
3.18724e-10
3.75083e-10
4.31303e-10
4.87109e-10
5.30174e-10
5.34822e-10
1.90437e-11
2.72126e-11
4.08706e-11
5.68373e-11
7.30119e-11
8.94806e-11
1.07864e-10
1.29882e-10
1.58674e-10
1.84055e-10
0.989229
0.993776
0.990257
0.991019
0.991041
0.99104
0.991018
0.99026
0.993802
0.989176
0.942608
0.946835
0.947186
0.948829
0.948898
0.948898
0.948828
0.947201
0.946911
0.942574
0.873981
0.875764
0.881141
0.882685
0.88275
0.882754
0.882703
0.881209
0.875889
0.873953
0.77308
0.776273
0.784991
0.786334
0.786512
0.786528
0.786394
0.785119
0.776457
0.773176
0.64435
0.650676
0.661245
0.662965
0.663521
0.663561
0.663075
0.661449
0.650946
0.644648
0.503345
0.512018
0.523133
0.525474
0.526463
0.526522
0.525623
0.523407
0.512395
0.503864
0.367302