/*--------------------------------*- C++ -*----------------------------------*\
| =========                 |                                                 |
| \\      /  F ield         | OpenFOAM: The Open Source CFD Toolbox           |
|  \\    /   O peration     | Version:  4.1                                   |
|   \\  /    A nd           | Web:      www.OpenFOAM.org                      |
|    \\/     M anipulation  |                                                 |
\*---------------------------------------------------------------------------*/
FoamFile
{
    version     2.0;
    format      ascii;
    class       volScalarField;
    location    "1100";
    object      epsilon;
}
// * * * * * * * * * * * * * * * * * * * * * * * * * * * * * * * * * * * * * //

dimensions      [0 2 -3 0 0 0 0];

internalField   nonuniform List<scalar> 
12000
(
0.31864
0.306483
0.305342
0.305038
0.304963
0.304962
0.305034
0.305334
0.306663
0.318857
0.0652321
0.0631603
0.0626443
0.062213
0.0620781
0.0620788
0.062212
0.0626276
0.0631287
0.0651781
0.0176481
0.0175116
0.0173755
0.0171516
0.0170665
0.0170671
0.0171522
0.017374
0.0175099
0.0176532
0.00615849
0.00628598
0.00624146
0.00613837
0.00609379
0.00609365
0.00614042
0.00624566
0.00629132
0.00616517
0.00263754
0.00274758
0.00274036
0.00269179
0.00266649
0.00266753
0.00269241
0.0027444
0.00275265
0.00264553
0.0013251
0.00140028
0.001405
0.00137962
0.00136482
0.00136447
0.00138052
0.00140743
0.00140361
0.00133114
0.00075092
0.000801
0.000809423
0.000795439
0.000785941
0.000786214
0.000796042
0.000810865
0.000803256
0.000755595
0.000466185
0.000500637
0.000510079
0.000501774
0.000495428
0.000495595
0.000502211
0.000511226
0.000502265
0.000470097
0.000310517
0.000335946
0.000344565
0.000339231
0.000334862
0.000335022
0.000339687
0.000345516
0.000337278
0.000314018
0.00021859
0.00023881
0.000245737
0.000242311
0.000239154
0.00023927
0.00024272
0.000246826
0.000239974
0.000221897
0.000160798
0.000177359
0.000183079
0.000180792
0.00017849
0.000178558
0.000181282
0.000184174
0.000178511
0.000164062
0.000122546
0.000136336
0.000141353
0.000139757
0.000138072
0.00013816
0.000140271
0.000142447
0.000137533
0.000125871
9.61558e-05
0.000107938
0.000112418
0.00011124
0.000110024
0.00011015
0.000111779
0.000113552
0.000109187
9.95991e-05
7.72873e-05
8.75881e-05
9.16554e-05
9.078e-05
8.99019e-05
9.00873e-05
9.13763e-05
9.28591e-05
8.89507e-05
8.09011e-05
6.33598e-05
7.25643e-05
7.6294e-05
7.56595e-05
7.50137e-05
7.52496e-05
7.63207e-05
7.76058e-05
7.41227e-05
6.72205e-05
5.27825e-05
6.11881e-05
6.46222e-05
6.41955e-05
6.37432e-05
6.40342e-05
6.49595e-05
6.60792e-05
6.2972e-05
5.69587e-05
4.45269e-05
5.2326e-05
5.55577e-05
5.52978e-05
5.49857e-05
5.53088e-05
5.61484e-05
5.71857e-05
5.44446e-05
4.91336e-05
3.79168e-05
4.52993e-05
4.83583e-05
4.8255e-05
4.80976e-05
4.84788e-05
4.92549e-05
5.02162e-05
4.77607e-05
4.30354e-05
3.24807e-05
3.9553e-05
4.25377e-05
4.25852e-05
4.25337e-05
4.29237e-05
4.369e-05
4.46756e-05
4.25177e-05
3.82811e-05
2.78798e-05
3.47573e-05
3.7749e-05
3.79442e-05
3.80397e-05
3.85122e-05
3.9247e-05
4.0187e-05
3.82762e-05
3.44657e-05
2.3859e-05
3.05947e-05
3.37336e-05
3.40932e-05
3.42619e-05
3.47508e-05
3.55331e-05
3.65671e-05
3.4948e-05
3.15022e-05
2.0212e-05
2.69144e-05
3.02711e-05
3.0838e-05
3.1164e-05
3.17783e-05
3.25342e-05
3.35641e-05
3.21907e-05
2.90711e-05
1.67771e-05
2.34579e-05
2.72153e-05
2.80336e-05
2.84068e-05
2.90639e-05
2.99443e-05
3.11342e-05
3.01016e-05
2.72813e-05
1.33758e-05
2.00746e-05
2.43505e-05
2.55632e-05
2.61703e-05
2.69871e-05
2.7844e-05
2.9069e-05
2.83262e-05
2.58087e-05
9.89163e-06
1.6489e-05
2.15778e-05
2.32461e-05
2.39479e-05
2.48471e-05
2.59673e-05
2.7479e-05
2.71203e-05
2.49091e-05
6.09129e-06
1.26926e-05
1.85877e-05
2.10644e-05
2.21916e-05
2.32716e-05
2.43389e-05
2.60189e-05
2.60178e-05
2.42778e-05
2.46882e-06
8.28253e-06
1.52043e-05
1.8468e-05
2.00023e-05
2.13465e-05
2.2868e-05
2.49879e-05
2.54641e-05
2.41575e-05
1.39656e-06
4.48994e-06
1.07806e-05
1.56394e-05
1.80713e-05
1.975e-05
2.11515e-05
2.37524e-05
2.49864e-05
2.47795e-05
2.20658e-06
3.75203e-06
5.83973e-06
9.47227e-06
1.42332e-05
1.73909e-05
1.96021e-05
2.25197e-05
2.50125e-05
2.49831e-05
4.47641e-06
6.43191e-06
7.09089e-06
7.32842e-06
8.24963e-06
1.13805e-05
1.56571e-05
2.04178e-05
2.4054e-05
2.76324e-05
0.306481
0.569344
0.539834
0.539639
0.539649
0.539648
0.539641
0.539833
0.569252
0.306245
0.0631569
0.00982269
0.00600242
0.00588062
0.00586455
0.00586663
0.00587744
0.00600335
0.00979757
0.0626784
0.0175085
0.000861447
0.000345347
0.000339763
0.00034074
0.000340101
0.000340057
0.000345058
0.000862513
0.0173315
0.00628334
0.000250185
0.0001174
0.000111605
0.000112483
0.000111324
0.000112021
0.000119496
0.000249237
0.00619291
0.00274556
0.000110978
9.91675e-05
9.6033e-05
9.81837e-05
0.000101091
9.46016e-05
0.000104148
0.000110019
0.00270394
0.0013986
5.81984e-05
8.11797e-05
9.06996e-05
8.21603e-05
8.21023e-05
8.83457e-05
9.03445e-05
5.73269e-05
0.00137939
0.000799525
3.94373e-05
6.04749e-05
7.23749e-05
6.48241e-05
7.0317e-05
7.05138e-05
6.93606e-05
3.82898e-05
0.000790991
0.000499289
2.29257e-05
4.52612e-05
5.64528e-05
5.20915e-05
5.44708e-05
5.56487e-05
5.5854e-05
2.19946e-05
0.000495334
0.000334692
3.19026e-05
3.52365e-05
4.17146e-05
3.93856e-05
4.01494e-05
4.1577e-05
4.19172e-05
3.04106e-05
0.000333176
0.000237601
2.94046e-05
2.85775e-05
3.27092e-05
3.09454e-05
3.11548e-05
3.29034e-05
3.33092e-05
2.80927e-05
0.00023778
0.000176173
3.62609e-05
2.39751e-05
2.60606e-05
2.47644e-05
2.51253e-05
2.69611e-05
2.76351e-05
3.47043e-05
0.000177706
0.000135145
3.38821e-05
2.06366e-05
2.1073e-05
2.00824e-05
2.08182e-05
2.23003e-05
2.30327e-05
3.23606e-05
0.000137646
0.000106715
2.88345e-05
1.79406e-05
1.7392e-05
1.65512e-05
1.75819e-05
1.87532e-05
1.95094e-05
2.70392e-05
0.000109753
8.63086e-05
2.87696e-05
1.57988e-05
1.46484e-05
1.37881e-05
1.50354e-05
1.59604e-05
1.67058e-05
2.69668e-05
8.97825e-05
7.12117e-05
2.699e-05
1.38907e-05
1.25076e-05
1.1669e-05
1.29405e-05
1.37979e-05
1.44e-05
2.52067e-05
7.49955e-05
5.97443e-05
2.48043e-05
1.23209e-05
1.08315e-05
9.98526e-06
1.11915e-05
1.19832e-05
1.24501e-05
2.29111e-05
6.38977e-05
5.07816e-05
2.25914e-05
1.09394e-05
9.45502e-06
8.69166e-06
9.73879e-06
1.05348e-05
1.08098e-05
2.05354e-05
5.52554e-05
4.36361e-05
2.07629e-05
9.81872e-06
8.35848e-06
7.66569e-06
8.51952e-06
9.29071e-06
9.49919e-06
1.83368e-05
4.85908e-05
3.77705e-05
1.90883e-05
8.95081e-06
7.48732e-06
6.88343e-06
7.52717e-06
8.26469e-06
8.31657e-06
1.62419e-05
4.3132e-05
3.28453e-05
1.78569e-05
8.28002e-06
6.7613e-06
6.26845e-06
6.71978e-06
7.42947e-06
7.48449e-06
1.44194e-05
3.88749e-05
2.85904e-05
1.68005e-05
7.98352e-06
6.26506e-06
5.80678e-06
6.07198e-06
6.70093e-06
6.67258e-06
1.2713e-05
3.51521e-05
2.48429e-05
1.63562e-05
7.7472e-06
5.92906e-06
5.46442e-06
5.59096e-06
6.12831e-06
6.17604e-06
1.13017e-05
3.23104e-05
2.14388e-05
1.62786e-05
8.11517e-06
5.85504e-06
5.23371e-06
5.24239e-06
5.66597e-06
5.6637e-06
9.95283e-06
2.95487e-05
1.81949e-05
1.63461e-05
8.32948e-06
5.90976e-06
5.20694e-06
5.16764e-06
5.4752e-06
5.47465e-06
8.95485e-06
2.75546e-05
1.50125e-05
1.62682e-05
9.20793e-06
6.0246e-06
5.30116e-06
5.11116e-06
5.36221e-06
5.47425e-06
8.04806e-06
2.53434e-05
1.17988e-05
1.70451e-05
1.05028e-05
6.62248e-06
5.45921e-06
5.36497e-06
5.56038e-06
5.62362e-06
7.49345e-06
2.38719e-05
8.43972e-06
1.76905e-05
1.24645e-05
7.41392e-06
6.00457e-06
5.5725e-06
5.75631e-06
5.79687e-06
7.55213e-06
2.19627e-05
5.18749e-06
1.96992e-05
1.47275e-05
9.36306e-06
6.95699e-06
6.20406e-06
6.26674e-06
6.79526e-06
7.31316e-06
2.11198e-05
3.63073e-06
2.23349e-05
1.92364e-05
1.15338e-05
8.48494e-06
7.40182e-06
7.41521e-06
7.63399e-06
1.13189e-05
1.89768e-05
3.87178e-06
2.48919e-05
2.62096e-05
1.83182e-05
1.15826e-05
8.92675e-06
8.97651e-06
9.7897e-06
1.52293e-05
2.13399e-05
0.305341
0.539842
0.508433
0.508296
0.508271
0.508291
0.5083
0.508421
0.539791
0.304818
0.0626399
0.00599959
0.00345791
0.00345177
0.00349469
0.00341271
0.00342733
0.00350283
0.00599771
0.0620879
0.0173722
0.000345869
0.000200695
0.000274546
7.2201e-05
0.000337767
0.00033528
4.19483e-05
0.000343956
0.0171973
0.006238
0.00011693
5.6262e-06
2.71009e-05
1.79385e-05
1.99638e-05
1.73145e-05
2.32964e-06
0.000112957
0.00616548
0.00273809
0.000100134
7.11266e-07
5.15992e-06
6.20973e-06
2.14614e-06
1.35891e-06
2.98662e-07
9.60478e-05
0.00270993
0.0014032
8.24108e-05
3.53633e-07
6.34737e-07
5.45248e-07
4.17253e-07
2.21394e-07
7.7736e-07
7.93319e-05
0.00139312
0.000807898
6.22366e-05
6.19753e-07
2.73427e-07
1.84577e-07
2.11424e-07
2.26821e-07
1.05945e-06
5.95495e-05
0.000805656
0.000508652
4.72996e-05
6.15107e-07
1.91344e-07
2.03674e-07
2.01521e-07
5.69199e-07
9.65681e-07
4.52425e-05
0.000509765
0.000343327
3.71274e-05
1.31281e-06
2.17608e-07
4.30255e-07
3.34209e-07
5.46349e-07
1.10581e-06
3.50212e-05
0.000345123
0.000244514
3.02874e-05
1.16105e-06
2.80047e-07
4.74849e-07
3.08649e-07
5.68505e-07
1.17514e-06
2.82558e-05
0.000246787
0.000182003
2.53568e-05
1.11608e-06
4.62437e-07
4.53876e-07
3.63261e-07
6.01674e-07
1.08261e-06
2.32799e-05
0.000184418
0.000140253
2.18849e-05
1.14401e-06
3.80039e-07
4.3245e-07
4.83275e-07
5.80391e-07
1.02607e-06
1.92539e-05
0.000142799
0.000111269
1.90726e-05
1.17689e-06
3.88583e-07
4.11506e-07
4.06098e-07
5.65853e-07
9.70028e-07
1.5942e-05
0.000113778
9.03953e-05
1.70149e-05
1.12415e-06
3.55624e-07
3.94456e-07
4.16754e-07
5.46013e-07
8.6307e-07
1.33933e-05
9.29365e-05
7.48995e-05
1.52361e-05
1.12536e-06
3.51781e-07
3.56903e-07
3.74701e-07
5.06165e-07
7.92665e-07
1.14157e-05
7.7459e-05
6.30916e-05
1.37602e-05
1.13245e-06
3.44582e-07
3.36325e-07
3.86041e-07
4.86247e-07
7.25756e-07
9.86904e-06
6.58692e-05
5.38689e-05
1.26688e-05
1.14956e-06
3.26412e-07
2.97106e-07
3.75481e-07
4.58046e-07
6.71315e-07
8.58111e-06
5.67727e-05
4.65053e-05
1.17204e-05
1.18606e-06
3.20705e-07
2.8356e-07
3.60239e-07
4.46536e-07
6.12716e-07
7.55558e-06
4.9818e-05
4.0472e-05
1.12199e-05
1.24885e-06
3.19712e-07
2.74377e-07
3.32492e-07
4.28545e-07
5.49714e-07
6.64454e-06
4.40095e-05
3.54243e-05
1.10091e-05
1.33564e-06
3.26363e-07
2.57185e-07
3.11597e-07
4.13627e-07
5.10817e-07
5.88642e-06
3.96027e-05
3.10859e-05
1.07935e-05
1.50373e-06
3.40232e-07
2.53256e-07
2.97821e-07
3.81573e-07
4.809e-07
5.17469e-06
3.55745e-05
2.72758e-05
1.09988e-05
1.62082e-06
4.06694e-07
2.5408e-07
2.8497e-07
3.65789e-07
4.42846e-07
4.54369e-06
3.26435e-05
2.38412e-05
1.10884e-05
1.85657e-06
4.25598e-07
2.69603e-07
2.80697e-07
3.59114e-07
4.38572e-07
3.94422e-06
2.95861e-05
2.06803e-05
1.18097e-05
2.19246e-06
4.89983e-07
2.91877e-07
2.93315e-07
3.5333e-07
4.26336e-07
3.38495e-06
2.75219e-05
1.77133e-05
1.23412e-05
2.56907e-06
6.04354e-07
3.0618e-07
3.09505e-07
3.64381e-07
4.27786e-07
2.88184e-06
2.49146e-05
1.48224e-05
1.30087e-05
3.39398e-06
7.70706e-07
3.83057e-07
3.28315e-07
3.78398e-07
4.12797e-07
2.39887e-06
2.33081e-05
1.20051e-05
1.33955e-05
4.75515e-06
1.14971e-06
4.68603e-07
3.94191e-07
3.9829e-07
5.01132e-07
2.03084e-06
2.07432e-05
9.22794e-06
1.41095e-05
6.75754e-06
1.68099e-06
7.29251e-07
4.6503e-07
5.24932e-07
5.15104e-07
1.65948e-06
1.88482e-05
6.76273e-06
1.54182e-05
9.01134e-06
2.87168e-06
1.01535e-06
6.25358e-07
5.83769e-07
6.88855e-07
1.70248e-06
1.56792e-05
5.18312e-06
1.71959e-05
1.29259e-05
4.91372e-06
2.09409e-06
9.97075e-07
8.54432e-07
8.14728e-07
2.09741e-06
1.29938e-05
0.305038
0.539655
0.508314
0.508135
0.508166
0.508125
0.50814
0.508298
0.539601
0.304504
0.0622052
0.00585484
0.00337737
0.00351923
0.00333939
0.00351423
0.00351209
0.00344412
0.00586726
0.061669
0.0171474
0.000342553
0.000323591
2.74713e-05
0.000294019
2.47007e-05
8.69482e-05
0.000266443
0.000339609
0.016988
0.00613463
0.000110394
8.49663e-05
5.26882e-08
0.000129316
2.4986e-08
3.14709e-05
0.000112725
0.000109614
0.00607345
0.00268897
9.78144e-05
7.26712e-06
8.60678e-10
5.48478e-05
4.15207e-09
1.33332e-05
2.76935e-05
9.41773e-05
0.0026671
0.00137788
8.35955e-05
3.85857e-07
6.24343e-10
7.58023e-07
7.85786e-09
6.00569e-06
8.54311e-06
8.72436e-05
0.00137121
0.000793644
6.29077e-05
1.48766e-07
5.55751e-10
1.91386e-08
3.35559e-09
2.01174e-06
3.32766e-06
6.97908e-05
0.000793496
0.00050016
5.19482e-05
3.80464e-07
5.65816e-10
4.05035e-09
1.93339e-09
1.08174e-06
1.8987e-06
5.48172e-05
0.000502443
0.000337863
3.82378e-05
4.48233e-07
1.82278e-09
1.48423e-09
9.35645e-10
3.98452e-07
1.09906e-06
3.9882e-05
0.000340917
0.000240752
3.31759e-05
5.40773e-07
2.49885e-09
9.37813e-10
1.06839e-09
3.10346e-07
5.94475e-07
3.03811e-05
0.000244154
0.000179213
2.73667e-05
5.9986e-07
4.75256e-09
7.61759e-10
1.01824e-09
1.49515e-07
2.71732e-07
2.41025e-05
0.0001827
0.000138198
2.26908e-05
6.08718e-07
6.65722e-09
8.98572e-10
1.45997e-09
1.18459e-07
1.38396e-07
1.96114e-05
0.000141763
0.000109646
1.90963e-05
6.29223e-07
7.70058e-09
1.81673e-09
1.19887e-09
9.33662e-08
8.69517e-08
1.59838e-05
0.000113309
8.90895e-05
1.62077e-05
6.39103e-07
1.02399e-08
1.93097e-09
1.94633e-09
7.55078e-08
3.41251e-08
1.31921e-05
9.28345e-05
7.38104e-05
1.39919e-05
6.45913e-07
1.15212e-08
2.19308e-09
3.88835e-09
4.02247e-08
8.1105e-08
1.10712e-05
7.75775e-05
6.21483e-05
1.23232e-05
6.59139e-07
1.63238e-08
2.31321e-09
2.06002e-09
1.66293e-08
1.19743e-07
9.4146e-06
6.61267e-05
5.30493e-05
1.12084e-05
6.73574e-07
1.86571e-08
2.6788e-09
2.01402e-09
8.46013e-09
1.44796e-07
8.08565e-06
5.70968e-05
4.57522e-05
1.04153e-05
7.02158e-07
2.81973e-08
2.79785e-09
6.73418e-10
4.44939e-09
1.23339e-07
7.01393e-06
5.01736e-05
3.98035e-05
9.89303e-06
7.27565e-07
3.00893e-08
3.63969e-09
2.19819e-09
2.09348e-09
1.45428e-07
6.09316e-06
4.43479e-05
3.48215e-05
9.68113e-06
8.90931e-07
4.09931e-08
3.34784e-09
3.3856e-09
1.69311e-09
1.48717e-07
5.34745e-06
3.99399e-05
3.05405e-05
9.67097e-06
9.32785e-07
5.11217e-08
6.20269e-09
3.72762e-09
1.12204e-09
1.36511e-07
4.64694e-06
3.58688e-05
2.68011e-05
9.79885e-06
1.06896e-06
7.44335e-08
6.45592e-09
4.18203e-09
2.71598e-09
1.19813e-07
4.07696e-06
3.29614e-05
2.34521e-05
9.97486e-06
1.23875e-06
1.02025e-07
1.28462e-08
5.11693e-09
2.85463e-09
1.02801e-07
3.487e-06
2.98501e-05
2.03844e-05
1.0413e-05
1.57893e-06
1.5428e-07
1.51407e-08
6.35655e-09
6.10635e-09
8.47424e-08
3.01137e-06
2.78306e-05
1.75174e-05
1.1129e-05
1.93031e-06
2.38494e-07
3.37014e-08
7.54019e-09
6.05595e-09
6.85166e-08
2.47501e-06
2.51504e-05
1.47925e-05
1.20362e-05
2.56011e-06
3.64075e-07
4.65728e-08
1.56316e-08
7.12787e-09
5.46567e-08
2.07651e-06
2.35759e-05
1.21844e-05
1.22984e-05
3.88901e-06
5.91881e-07
1.03811e-07
1.85398e-08
1.21838e-08
4.22991e-08
1.58326e-06
2.0831e-05
9.68827e-06
1.26964e-05
5.4189e-06
1.04253e-06
1.76283e-07
4.63857e-08
1.45736e-08
3.73152e-08
1.29363e-06
1.90181e-05
7.37251e-06
1.33524e-05
7.10828e-06
1.7143e-06
3.65355e-07
7.36283e-08
3.4387e-08
3.50111e-08
8.96644e-07
1.5448e-05
5.32558e-06
1.40633e-05
9.16728e-06
2.73307e-06
6.95166e-07
1.97406e-07
5.73921e-08
5.92341e-08
9.21412e-07
1.26183e-05
0.304962
0.539656
0.508323
0.508125
0.508115
0.508114
0.508126
0.508279
0.539608
0.304428
0.0620742
0.00586598
0.00329779
0.00350614
0.0034967
0.00349629
0.00351315
0.00346514
0.00585619
0.0615371
0.0170628
0.000341095
0.000297678
4.54629e-05
3.98788e-05
5.58251e-05
4.23661e-05
0.000224341
0.000340544
0.0169055
0.00608995
0.000113147
9.57463e-05
1.31922e-05
8.55118e-06
1.86152e-05
9.81381e-06
1.46079e-05
0.000112229
0.0060307
0.00266431
9.72391e-05
5.64354e-06
5.65763e-07
9.84473e-07
1.1227e-07
4.24168e-06
2.49422e-06
9.31835e-05
0.00264277
0.00136217
9.42276e-05
7.10023e-07
1.88279e-07
2.7636e-11
8.29157e-11
3.71272e-07
9.64813e-07
8.83197e-05
0.00135647
0.000783969
7.4938e-05
2.13397e-07
4.73205e-08
3.92569e-13
1.01455e-12
5.85848e-08
4.29321e-07
7.0925e-05
0.000783913
0.000493744
5.79784e-05
2.77224e-07
3.20819e-09
8.20847e-13
2.90188e-12
2.42486e-08
2.60459e-07
5.57265e-05
0.000495842
0.000333162
4.23102e-05
6.98337e-07
8.63425e-10
9.80371e-12
9.48701e-12
1.28313e-08
1.8651e-07
4.11951e-05
0.000336241
0.000237373
3.29978e-05
6.28846e-07
2.60112e-09
8.56607e-11
4.5765e-12
8.45407e-09
1.61227e-07
3.19127e-05
0.000240888
0.000176764
2.68945e-05
6.49579e-07
2.04207e-09
1.67053e-11
6.69777e-12
5.11157e-09
2.05548e-07
2.5217e-05
0.000180368
0.000136335
2.22855e-05
6.66288e-07
7.19071e-09
1.24893e-11
5.06298e-12
2.81544e-09
1.90657e-07
2.02511e-05
0.00014001
0.000108238
1.87816e-05
6.40467e-07
6.83843e-09
2.82305e-11
5.1694e-12
1.31964e-09
2.69037e-07
1.65302e-05
0.000111861
8.8012e-05
1.60144e-05
6.44243e-07
9.09165e-09
5.28942e-11
5.80194e-12
7.11552e-10
2.30951e-07
1.36806e-05
9.16658e-05
7.29868e-05
1.38683e-05
6.43789e-07
1.04302e-08
7.09453e-11
5.17749e-12
4.32423e-10
2.25922e-07
1.14666e-05
7.66078e-05
6.15163e-05
1.2236e-05
6.43322e-07
1.42579e-08
2.29535e-10
6.41419e-12
2.88906e-10
1.78668e-07
9.74036e-06
6.53032e-05
5.25324e-05
1.09831e-05
6.45139e-07
1.58402e-08
2.15544e-10
9.25389e-12
3.13738e-10
1.87945e-07
8.32068e-06
5.63635e-05
4.53517e-05
1.01803e-05
6.68385e-07
1.98099e-08
6.11239e-10
1.39621e-11
2.6209e-10
1.82856e-07
7.19093e-06
4.95228e-05
3.947e-05
9.65041e-06
7.02257e-07
2.492e-08
6.01745e-10
2.76313e-11
3.63903e-10
1.69307e-07
6.19461e-06
4.3745e-05
3.45497e-05
9.2999e-06
7.77371e-07
3.45313e-08
1.76531e-09
7.07315e-11
3.68388e-10
1.5215e-07
5.39825e-06
3.93898e-05
3.03365e-05
9.36052e-06
8.6485e-07
4.62915e-08
1.84724e-09
1.201e-10
4.96109e-10
1.32456e-07
4.64598e-06
3.53548e-05
2.66524e-05
9.43486e-06
1.01394e-06
6.55661e-08
4.93916e-09
1.15348e-10
4.4105e-10
1.13259e-07
4.04997e-06
3.24877e-05
2.33409e-05
9.76659e-06
1.20279e-06
9.82186e-08
5.86787e-09
6.71954e-10
4.94693e-10
9.48447e-08
3.43746e-06
2.94172e-05
2.03087e-05
1.02055e-05
1.52327e-06
1.41633e-07
1.48288e-08
7.43417e-10
4.73802e-10
7.73795e-08
2.96535e-06
2.74471e-05
1.74894e-05
1.10527e-05
1.89654e-06
2.31464e-07
2.0615e-08
2.9433e-09
6.11163e-10
6.19301e-08
2.42793e-06
2.48298e-05
1.47788e-05
1.19856e-05
2.57228e-06
3.49736e-07
4.95599e-08
4.03791e-09
3.13988e-10
4.63279e-08
2.04484e-06
2.3271e-05
1.21673e-05
1.23473e-05
3.91911e-06
5.90894e-07
7.79954e-08
1.35893e-08
3.5279e-09
3.50916e-08
1.55547e-06
2.0671e-05
9.61787e-06
1.27604e-05
5.4507e-06
1.03362e-06
1.80391e-07
2.42365e-08
7.49354e-09
2.27714e-08
1.2819e-06
1.87761e-05
7.24343e-06
1.34497e-05
7.18903e-06
1.71216e-06
3.32337e-07
7.01906e-08
1.92701e-08
1.94104e-08
8.77244e-07
1.54353e-05
5.03603e-06
1.41012e-05
9.1972e-06
2.73911e-06
6.84127e-07
1.63118e-07
3.50055e-08
2.95767e-08
9.62601e-07
1.21317e-05
0.304961
0.539661
0.508272
0.508122
0.508114
0.508113
0.508121
0.508272
0.539608
0.304429
0.0620718
0.00584992
0.00349342
0.00351374
0.00348852
0.00350519
0.00353101
0.00348614
0.00585739
0.0615381
0.0170622
0.000342589
5.66072e-05
3.53677e-05
7.01201e-05
4.09036e-05
1.66767e-05
0.000194817
0.00034005
0.0169064
0.00609003
0.000111362
1.79452e-05
3.53874e-06
2.29234e-05
1.04117e-05
1.28995e-08
1.58005e-05
0.000111494
0.0060308
0.00266455
0.000100519
2.39058e-06
8.51503e-08
6.62662e-06
1.47086e-07
5.0076e-09
2.48331e-06
9.33857e-05
0.00264311
0.0013619
8.22169e-05
6.18033e-07
3.78835e-08
4.53594e-06
1.96272e-10
4.24179e-11
1.16047e-06
9.01405e-05
0.00135621
0.000783933
7.06387e-05
2.23998e-07
1.51016e-08
5.94505e-07
1.55292e-10
4.99187e-11
5.0847e-07
7.28525e-05
0.000783843
0.000493603
5.5028e-05
2.29178e-07
3.94905e-09
5.2452e-07
9.97448e-10
9.3934e-11
2.67141e-07
5.63383e-05
0.000495825
0.000333076
4.09807e-05
3.0803e-07
2.09408e-09
1.39386e-07
3.60678e-10
1.22324e-10
1.74042e-07
4.10446e-05
0.000336072
0.000237432
3.21655e-05
3.06403e-07
1.55131e-09
7.88066e-08
2.1003e-10
1.97181e-10
2.05788e-07
3.19597e-05
0.00024069
0.000176717
2.60164e-05
4.5743e-07
1.28354e-09
1.48067e-08
7.47385e-11
1.18953e-10
1.2488e-07
2.55328e-05
0.000180203
0.000136245
2.17825e-05
3.00045e-07
1.79377e-09
1.53278e-08
8.2588e-11
2.08041e-10
1.99164e-07
2.07405e-05
0.00013982
0.000108178
1.86403e-05
6.63742e-07
3.09235e-09
7.98299e-09
6.67645e-11
3.20781e-10
2.69951e-07
1.71976e-05
0.000111659
8.7996e-05
1.62296e-05
5.61219e-07
8.82128e-09
3.84896e-09
3.51807e-11
3.86446e-10
2.40558e-07
1.44684e-05
9.15052e-05
7.30189e-05
1.42681e-05
5.62861e-07
7.93781e-09
1.76776e-09
5.44653e-11
5.69715e-10
2.31193e-07
1.2263e-05
7.65334e-05
6.15464e-05
1.25542e-05
5.94308e-07
9.84956e-09
1.11141e-09
3.79762e-11
6.4899e-10
1.96544e-07
1.0418e-05
6.53018e-05
5.25853e-05
1.1368e-05
6.32374e-07
1.34607e-08
9.44237e-10
2.65016e-11
6.72179e-10
1.93985e-07
8.84611e-06
5.64206e-05
4.53855e-05
1.04622e-05
6.84232e-07
1.82551e-08
5.10386e-10
1.34982e-11
9.56425e-10
1.99712e-07
7.53375e-06
4.95878e-05
3.95058e-05
9.86285e-06
7.14083e-07
2.40901e-08
3.12647e-10
2.36503e-11
7.19426e-10
1.84803e-07
6.40063e-06
4.38229e-05
3.45671e-05
9.58779e-06
8.02211e-07
3.38382e-08
8.96335e-10
2.54131e-11
6.83273e-10
1.62855e-07
5.49046e-06
3.94349e-05
3.03764e-05
9.61131e-06
8.94509e-07
4.57816e-08
1.4837e-09
8.03841e-11
6.43016e-10
1.38153e-07
4.6739e-06
3.54004e-05
2.66654e-05
9.71521e-06
1.06617e-06
6.79523e-08
2.99956e-09
9.88283e-11
7.06488e-10
1.15516e-07
4.03579e-06
3.24965e-05
2.33482e-05
9.84849e-06
1.2106e-06
9.66399e-08
6.68647e-09
1.37981e-10
6.74452e-10
9.45724e-08
3.41081e-06
2.94307e-05
2.02821e-05
1.03215e-05
1.51697e-06
1.41849e-07
9.89683e-09
1.02713e-09
6.57055e-10
7.62917e-08
2.93291e-06
2.74442e-05
1.74149e-05
1.08567e-05
1.84435e-06
2.19981e-07
2.61054e-08
1.72135e-09
7.20026e-10
6.00948e-08
2.40142e-06
2.48092e-05
1.46938e-05
1.17142e-05
2.39217e-06
3.30529e-07
3.9539e-08
6.44105e-09
1.10062e-09
4.53407e-08
2.02476e-06
2.33185e-05
1.20844e-05
1.20498e-05
3.67655e-06
5.42229e-07
9.60439e-08
1.05638e-08
1.29027e-09
3.36241e-08
1.53982e-06
2.05303e-05
9.54543e-06
1.2485e-05
5.18471e-06
9.52623e-07
1.55039e-07
3.20434e-08
5.54281e-09
2.20827e-08
1.27405e-06
1.90917e-05
7.17794e-06
1.32327e-05
6.95024e-06
1.60972e-06
3.37738e-07
5.84187e-08
5.63688e-09
2.00513e-08
8.6379e-07
1.50357e-05
4.98533e-06
1.39771e-05
9.0162e-06
2.64072e-06
6.51264e-07
1.65e-07
4.53972e-08
1.87618e-08
9.483e-07
1.31587e-05
0.305033
0.539649
0.508292
0.508132
0.508122
0.50819
0.50814
0.508282
0.5396
0.304505
0.0622066
0.00587602
0.00346379
0.0035323
0.00351521
0.00325988
0.00350636
0.00349584
0.00587026
0.0616716
0.0171477
0.000340307
0.000230567
1.80632e-05
3.23009e-05
0.000319222
0.00010278
0.000132024
0.000339245
0.0169912
0.00613649
0.000110286
1.15656e-05
7.90084e-09
1.69064e-06
7.07493e-05
4.13205e-05
4.39607e-05
0.000110354
0.00607657
0.00268995
9.83362e-05
1.24513e-06
2.03763e-10
3.87286e-07
1.18631e-07
1.09951e-05
4.94688e-06
9.49446e-05
0.00266904
0.00137801
8.42399e-05
3.4125e-07
1.60109e-10
1.32503e-07
7.67938e-10
1.06092e-06
1.92819e-06
8.88781e-05
0.00137195
0.000793642
6.5844e-05
1.67087e-07
7.30122e-10
2.11111e-08
5.1793e-10
3.62183e-07
7.96898e-07
7.08038e-05
0.000793899
0.000500367
5.20142e-05
1.998e-07
1.15357e-09
7.63785e-09
8.42541e-10
1.87284e-07
3.83629e-07
5.50532e-05
0.000502662
0.000337844
4.46267e-05
3.16892e-07
2.79975e-09
4.26282e-09
8.63513e-10
1.19471e-07
2.08663e-07
4.00693e-05
0.000341012
0.000240829
3.53649e-05
3.26253e-07
9.37168e-10
2.70563e-09
6.37867e-10
7.18204e-08
1.61068e-07
3.26327e-05
0.000244098
0.000179185
2.86042e-05
5.40367e-07
9.55072e-09
1.85553e-09
1.10919e-09
3.88192e-08
1.07348e-07
2.60782e-05
0.000182599
0.000138067
2.36111e-05
4.96855e-07
7.1033e-09
1.24664e-09
1.9159e-09
1.73091e-08
1.63872e-07
2.11193e-05
0.00014165
0.000109585
2.00351e-05
5.19717e-07
1.36058e-08
7.62837e-10
3.02716e-09
6.79174e-09
1.68535e-07
1.73014e-05
0.00011322
8.90812e-05
1.72437e-05
5.42604e-07
1.19941e-08
9.59688e-10
2.20601e-09
5.27542e-09
2.19913e-07
1.43294e-05
9.28174e-05
7.38732e-05
1.51179e-05
6.48843e-07
1.39146e-08
1.19278e-09
2.72671e-09
3.73936e-09
1.94607e-07
1.20248e-05
7.76269e-05
6.22556e-05
1.34066e-05
6.35222e-07
1.65016e-08
1.98264e-09
2.47246e-09
2.80278e-09
2.07141e-07
1.01863e-05
6.62032e-05
5.31403e-05
1.20069e-05
6.64109e-07
2.09121e-08
1.45545e-09
2.35836e-09
1.62979e-09
1.72146e-07
8.71962e-06
5.71995e-05
4.58562e-05
1.11579e-05
7.27064e-07
2.62692e-08
3.19801e-09
2.67179e-09
1.37909e-09
1.85402e-07
7.53096e-06
5.02682e-05
3.98776e-05
1.04291e-05
8.15505e-07
3.27631e-08
3.39774e-09
2.90636e-09
6.53868e-10
1.83011e-07
6.52309e-06
4.44687e-05
3.48907e-05
1.01943e-05
8.74103e-07
4.38674e-08
3.63488e-09
3.85488e-09
2.13336e-09
1.70184e-07
5.69696e-06
4.0034e-05
3.06292e-05
1.01753e-05
9.85179e-07
5.72543e-08
4.62963e-09
4.06197e-09
2.93773e-09
1.51963e-07
4.92847e-06
3.59887e-05
2.68747e-05
1.02566e-05
1.1577e-06
8.25498e-08
7.46364e-09
4.42795e-09
3.76784e-09
1.3267e-07
4.30083e-06
3.30538e-05
2.3517e-05
1.03654e-05
1.32759e-06
1.12455e-07
1.01128e-08
5.02123e-09
4.63783e-09
1.12145e-07
3.65825e-06
2.99471e-05
2.04361e-05
1.07568e-05
1.67158e-06
1.6872e-07
2.05875e-08
6.10486e-09
5.91149e-09
9.38839e-08
3.14857e-06
2.7949e-05
1.75676e-05
1.13461e-05
1.9954e-06
2.52046e-07
3.00496e-08
1.01701e-08
7.16161e-09
7.46733e-08
2.57681e-06
2.52271e-05
1.48524e-05
1.21917e-05
2.66021e-06
3.74861e-07
6.32309e-08
1.28761e-08
9.67639e-09
6.08706e-08
2.15902e-06
2.37221e-05
1.2251e-05
1.24401e-05
3.98292e-06
6.24583e-07
9.86166e-08
2.62354e-08
1.30423e-08
4.52032e-08
1.6452e-06
2.09522e-05
9.76199e-06
1.28387e-05
5.56721e-06
1.05313e-06
2.04509e-07
4.10509e-08
1.76628e-08
4.2189e-08
1.33952e-06
1.9087e-05
7.45287e-06
1.35059e-05
7.24899e-06
1.79793e-06
3.75314e-07
9.28274e-08
4.2232e-08
4.02384e-08
9.26896e-07
1.54527e-05
5.39497e-06
1.42046e-05
9.31962e-06
2.75801e-06
7.27202e-07
1.91144e-07
6.51797e-08
6.4975e-08
9.96127e-07
1.29599e-05
0.305333
0.539842
0.508422
0.508287
0.508276
0.508286
0.508281
0.508412
0.539792
0.304814
0.0626216
0.00600008
0.00349838
0.00348866
0.00347918
0.0034329
0.00350287
0.00354234
0.00599946
0.0620855
0.0173705
0.000345851
5.45059e-05
0.000204057
0.000152346
0.000277147
0.000141085
1.76133e-05
0.000344219
0.0172064
0.0062408
0.000120465
7.25862e-06
1.14891e-06
2.18643e-05
0.000114103
7.79842e-06
1.44605e-07
0.000118497
0.00617866
0.00274041
0.00010249
7.89603e-07
1.23537e-07
3.77221e-06
8.40278e-06
3.71304e-07
8.75965e-07
0.00010017
0.00271931
0.00140364
9.49283e-05
3.7989e-07
4.07577e-07
1.58143e-06
2.62284e-06
1.5665e-07
1.00092e-06
9.24995e-05
0.00139798
0.000808342
7.38047e-05
5.00375e-07
5.15511e-07
6.96701e-07
1.04499e-06
3.23231e-07
9.30658e-07
7.15913e-05
0.000808558
0.000508809
5.78701e-05
6.26894e-07
5.29245e-07
4.12914e-07
4.99033e-07
3.26147e-07
1.02048e-06
5.54403e-05
0.000511309
0.000343197
4.45916e-05
1.20274e-06
6.00081e-07
2.59426e-07
2.69818e-07
6.06973e-07
9.86414e-07
4.12523e-05
0.000346087
0.000244471
3.37583e-05
1.03947e-06
6.19928e-07
1.873e-07
1.83341e-07
5.4154e-07
1.06236e-06
3.1518e-05
0.000247299
0.000181942
2.71976e-05
9.60184e-07
6.03659e-07
1.92568e-07
1.94196e-07
5.05986e-07
1.06713e-06
2.53361e-05
0.000184475
0.000140216
2.23788e-05
1.06588e-06
6.22636e-07
3.68615e-07
2.51663e-07
4.98706e-07
9.88481e-07
2.08718e-05
0.000142652
0.000111247
1.89981e-05
9.85919e-07
6.07616e-07
2.3734e-07
2.6791e-07
4.33518e-07
9.20495e-07
1.76081e-05
0.000113631
9.04052e-05
1.6538e-05
9.84957e-07
5.87162e-07
3.92799e-07
3.73844e-07
4.27762e-07
8.57195e-07
1.51312e-05
9.29069e-05
7.49774e-05
1.47222e-05
9.76049e-07
5.63087e-07
3.26155e-07
3.49387e-07
4.01847e-07
7.96795e-07
1.30777e-05
7.75479e-05
6.31752e-05
1.31281e-05
9.70907e-07
5.2278e-07
3.15635e-07
3.54046e-07
3.77763e-07
7.29507e-07
1.13517e-05
6.60264e-05
5.39442e-05
1.19522e-05
9.65519e-07
4.80931e-07
2.81127e-07
3.01261e-07
3.56517e-07
6.69447e-07
9.8592e-06
5.69777e-05
4.6563e-05
1.118e-05
9.74374e-07
4.62208e-07
2.77594e-07
3.45712e-07
3.41312e-07
6.04317e-07
8.59983e-06
5.00215e-05
4.04867e-05
1.05961e-05
1.01621e-06
4.43011e-07
2.73289e-07
2.87501e-07
3.29678e-07
5.56024e-07
7.49342e-06
4.42233e-05
3.54258e-05
1.04529e-05
1.05713e-06
4.26076e-07
2.87821e-07
3.04537e-07
3.22696e-07
5.15139e-07
6.54507e-06
3.97853e-05
3.10946e-05
1.04577e-05
1.25031e-06
4.204e-07
2.83478e-07
3.06308e-07
3.2159e-07
4.71861e-07
5.69441e-06
3.57681e-05
2.7259e-05
1.04462e-05
1.33849e-06
4.29329e-07
2.87391e-07
2.94573e-07
3.14641e-07
4.57573e-07
4.93367e-06
3.28121e-05
2.38199e-05
1.10221e-05
1.54119e-06
4.30777e-07
2.92243e-07
2.95089e-07
3.19832e-07
4.37189e-07
4.24811e-06
2.97578e-05
2.06369e-05
1.11812e-05
1.88831e-06
5.45358e-07
3.09474e-07
3.10569e-07
3.21121e-07
4.26584e-07
3.60473e-06
2.76825e-05
1.76626e-05
1.18102e-05
2.27386e-06
5.8678e-07
3.47656e-07
3.23938e-07
3.33031e-07
4.20793e-07
3.05529e-06
2.50819e-05
1.47967e-05
1.26102e-05
3.0826e-06
8.13053e-07
3.93534e-07
3.55322e-07
3.58991e-07
4.08964e-07
2.50808e-06
2.34319e-05
1.20277e-05
1.31289e-05
4.50204e-06
1.06989e-06
5.0379e-07
4.48288e-07
4.03543e-07
4.82803e-07
2.12424e-06
2.08593e-05
9.31421e-06
1.38666e-05
6.52577e-06
1.74261e-06
6.92252e-07
5.2486e-07
4.83005e-07
5.16076e-07
1.68442e-06
1.91439e-05
6.91181e-06
1.53144e-05
8.97515e-06
2.73383e-06
1.10892e-06
7.66638e-07
6.20911e-07
6.36512e-07
1.73678e-06
1.56491e-05
5.33296e-06
1.71441e-05
1.2958e-05
4.8898e-06
1.92246e-06
9.85178e-07
7.97391e-07
8.01956e-07
2.05045e-06
1.34145e-05
0.306662
0.569274
0.539803
0.539608
0.539614
0.539615
0.539608
0.539799
0.569236
0.306169
0.0631163
0.0097364
0.00598689
0.0058692
0.0058639
0.00586019
0.00586904
0.00600127
0.00978342
0.0625898
0.0175187
0.000847266
0.000345311
0.000340842
0.000340158
0.000340337
0.000340017
0.00034734
0.000863931
0.0172964
0.00628415
0.000253057
0.000113849
0.00011239
0.000112128
0.00011195
0.000110589
0.000124037
0.000248372
0.00617689
0.00274274
0.000114312
9.48478e-05
9.40886e-05
9.54447e-05
9.63019e-05
9.59188e-05
0.000117662
0.000109317
0.0026978
0.00139676
5.98357e-05
7.8288e-05
8.85993e-05
9.14743e-05
8.99507e-05
8.85062e-05
8.85346e-05
5.69216e-05
0.00137716
0.000798833
3.76674e-05
5.97311e-05
7.01304e-05
7.29495e-05
7.21817e-05
7.06525e-05
6.67405e-05
3.81347e-05
0.000790276
0.000498654
2.32034e-05
4.51798e-05
5.4557e-05
5.68059e-05
5.67408e-05
5.58816e-05
5.36257e-05
2.16218e-05
0.000495155
0.000334105
2.9247e-05
3.55132e-05
4.07331e-05
4.18537e-05
4.17814e-05
4.15282e-05
4.132e-05
3.03819e-05
0.000333188
0.000237112
2.71373e-05