/*--------------------------------*- C++ -*----------------------------------*\
| =========                 |                                                 |
| \\      /  F ield         | OpenFOAM: The Open Source CFD Toolbox           |
|  \\    /   O peration     | Version:  4.1                                   |
|   \\  /    A nd           | Web:      www.OpenFOAM.org                      |
|    \\/     M anipulation  |                                                 |
\*---------------------------------------------------------------------------*/
FoamFile
{
    version     2.0;
    format      ascii;
    class       volScalarField;
    location    "1100";
    object      k;
}
// * * * * * * * * * * * * * * * * * * * * * * * * * * * * * * * * * * * * * //

dimensions      [0 2 -2 0 0 0 0];

internalField   nonuniform List<scalar> 
12000
(
0.11663
0.114053
0.113762
0.113689
0.113671
0.113671
0.113689
0.113761
0.114054
0.11663
0.0404259
0.0397673
0.0393971
0.0392138
0.0391581
0.0391582
0.0392143
0.0393995
0.0397795
0.0404427
0.0169192
0.0169713
0.0167339
0.0165844
0.0165299
0.0165301
0.0165847
0.0167325
0.0169758
0.0169269
0.00837874
0.00857073
0.00844335
0.00834488
0.00830342
0.00830388
0.00834497
0.00843904
0.00857146
0.0083863
0.00475889
0.00493163
0.00487585
0.00481482
0.00478399
0.00478436
0.00481504
0.00487203
0.00493137
0.0047646
0.00300577
0.00313997
0.00312037
0.00308098
0.0030585
0.00305848
0.00308188
0.00311843
0.00314112
0.00301078
0.00205766
0.0021582
0.00216043
0.00213491
0.00211812
0.00211809
0.00213628
0.00216111
0.00215979
0.00206348
0.00149802
0.0015796
0.00158925
0.00157152
0.00155844
0.00155865
0.00157264
0.00159093
0.00158189
0.00150428
0.00114267
0.0012077
0.00122415
0.0012116
0.00120142
0.0012019
0.00121295
0.00122625
0.00121051
0.00114992
0.000904172
0.00095679
0.000977459
0.000968929
0.000960744
0.000961216
0.000970185
0.000980272
0.000960045
0.000912402
0.000736854
0.000781957
0.000803646
0.000797816
0.00079116
0.000791492
0.000799221
0.000807165
0.00078542
0.00074611
0.000615038
0.000656779
0.000676749
0.000672547
0.000667162
0.000667487
0.00067424
0.000680638
0.000660648
0.000625567
0.000523421
0.000563315
0.000581249
0.000577951
0.00057369
0.000574104
0.000579913
0.000585463
0.000567809
0.000535469
0.000452601
0.000491026
0.000507485
0.000504817
0.000501521
0.000502138
0.000507107
0.000512113
0.000496202
0.000466384
0.000396507
0.000433659
0.000449228
0.000447089
0.000444534
0.000445384
0.00044972
0.000454421
0.000439915
0.000412347
0.000351092
0.000387379
0.000402262
0.000400698
0.00039882
0.00039997
0.000403862
0.000408273
0.000394905
0.000369328
0.000313497
0.000349209
0.00036383
0.000362771
0.000361409
0.000362774
0.000366428
0.000370797
0.000358581
0.000334737
0.00028168
0.000317299
0.000331747
0.000331308
0.000330551
0.00033228
0.00033579
0.00034002
0.000328754
0.000306484
0.0002541
0.000289992
0.000304662
0.000304807
0.000304542
0.000306391
0.000310009
0.000314607
0.000304359
0.000283515
0.000229516
0.000266104
0.000281279
0.000282267
0.000282681
0.000285018
0.000288615
0.000293202
0.000283896
0.000264406
0.000206903
0.000244556
0.000260942
0.00026279
0.000263622
0.000266124
0.00027015
0.000275356
0.000267261
0.00024907
0.000185242
0.00022451
0.000242699
0.000245766
0.000247458
0.000250732
0.000254712
0.000260048
0.000253095
0.000236159
0.000163594
0.0002049
0.000226147
0.000230572
0.0002326
0.000236206
0.000241021
0.000247409
0.000242041
0.000226419
0.000140628
0.000184777
0.000210019
0.000216842
0.000220204
0.000224745
0.000229549
0.000236297
0.000232418
0.000218245
0.000114912
0.000162038
0.000193732
0.000203514
0.000207536
0.000212724
0.00021912
0.000227576
0.000225774
0.000213279
8.28719e-05
0.000136109
0.000175454
0.000190531
0.000197224
0.000203565
0.000209788
0.000219441
0.000219529
0.000209278
4.52978e-05
0.000102539
0.000153631
0.000174733
0.000183993
0.000192184
0.000201151
0.000213584
0.000216304
0.000209843
3.12547e-05
6.82737e-05
0.000122357
0.000155905
0.000172385
0.000182389
0.000191124
0.000206161
0.000213827
0.000210816
4.23599e-05
6.0511e-05
8.10306e-05
0.00011277
0.000146538
0.000168419
0.000180973
0.00020012
0.000213258
0.000217379
6.79723e-05
8.65677e-05
9.22164e-05
9.30582e-05
0.000104007
0.000125167
0.000157226
0.000184127
0.000209835
0.000226145
0.114052
0.0139264
0.0123459
0.0123409
0.0123421
0.0123421
0.012341
0.0123459
0.0139222
0.114073
0.0397658
0.00189378
0.00103092
0.00102724
0.00102882
0.00102853
0.00102794
0.00103051
0.00189337
0.0397828
0.0169692
0.00150021
0.000644368
0.000624494
0.000624682
0.000625803
0.000622167
0.000649274
0.00149153
0.0170059
0.00856848
0.00121247
0.000570944
0.000558482
0.000558534
0.000559757
0.000555528
0.000571754
0.00120566
0.00862424
0.00492922
0.000836444
0.00041834
0.000423565
0.000409969
0.000409522
0.000410059
0.000420744
0.000825924
0.00497717
0.00313742
0.000559736
0.000289462
0.000296379
0.000289668
0.000293101
0.000284011
0.000293497
0.000558895
0.00316849
0.00215552
0.00035894
0.000219984
0.000233836
0.000227404
0.000226698
0.000224919
0.000230556
0.000338268
0.00217646
0.00157676
0.00039449
0.000203514
0.000204097
0.000203344
0.000197715
0.000199409
0.000199234
0.000379671
0.00158818
0.00120466
0.000282288
0.000182476
0.000191614
0.000188284
0.000181714
0.000190083
0.000187311
0.000271264
0.00121389
0.000953506
0.00025202
0.000164948
0.000178672
0.000169031
0.000163481
0.000178747
0.000178544
0.000241871
0.000961574
0.000778383
0.000251544
0.000153235
0.000157697
0.000150364
0.000150508
0.000166766
0.000166387
0.00024329
0.000786153
0.000652865
0.000244572
0.000145059
0.000138056
0.000132272
0.000138928
0.000150402
0.000154335
0.000234731
0.000661882
0.000558992
0.000243634
0.000135787
0.000122306
0.000116729
0.000128186
0.000136043
0.000143228
0.00023458
0.000569617
0.000486202
0.000236982
0.000127053
0.000110194
0.000103084
0.000117949
0.000123584
0.000131486
0.000226401
0.000498906
0.000428246
0.000226111
0.0001172
0.000100082
9.24539e-05
0.000107851
0.000114
0.000120453
0.000214787
0.00044303
0.000381266
0.000215649
0.000109513
9.21007e-05
8.36691e-05
9.84732e-05
0.000104767
0.000109762
0.000202933
0.000398501
0.000342316
0.000204522
0.000102269
8.4744e-05
7.73813e-05
9.0135e-05
9.75952e-05
0.000100384
0.000189814
0.000361926
0.000309505
0.000196613
9.63296e-05
7.96341e-05
7.24758e-05
8.28571e-05
9.03406e-05
9.2906e-05
0.000177272
0.000332352
0.000281255
0.000188112
9.47031e-05
7.44708e-05
6.92093e-05
7.67687e-05
8.4232e-05
8.50744e-05
0.000163438
0.000307134
0.00025631
0.000180993
9.33397e-05
7.27725e-05
6.68431e-05
7.2197e-05
7.92624e-05
8.07873e-05
0.000150879
0.000286803
0.000233844
0.000178566
9.40779e-05
7.20553e-05
6.50339e-05
6.74911e-05
7.37213e-05
7.45815e-05
0.000137483
0.000268434
0.00021293
0.000177564
9.50613e-05
7.21753e-05
6.47659e-05
6.60174e-05
6.95895e-05
7.10985e-05
0.000126068
0.000254005
0.00019307
0.0001788
0.000101844
7.1959e-05
6.47967e-05
6.51332e-05
6.85313e-05
7.06708e-05
0.000114108
0.000239566
0.000173195
0.000178987
0.000106237
7.45203e-05
6.61125e-05
6.446e-05
6.85409e-05
6.97514e-05
0.000105776
0.000228892
0.000152384
0.000180663
0.000116362
7.76257e-05
6.76384e-05
6.69766e-05
6.91588e-05
6.9092e-05
9.69536e-05
0.000216573
0.00012973
0.000186916
0.000133986
8.49215e-05
7.13925e-05
6.78136e-05
6.97989e-05
7.19618e-05
9.15672e-05
0.000207903
0.000104216
0.000196558
0.000149904
9.8727e-05
7.96109e-05
7.12918e-05
7.26864e-05
7.38929e-05
9.24087e-05
0.000197681
7.53458e-05
0.000205616
0.000170452
0.000117387
9.21404e-05
8.05435e-05
8.01572e-05
8.05206e-05
9.64924e-05
0.000189187
5.91543e-05
0.000229999
0.000207823
0.000144316
0.000108271
9.18859e-05
8.97584e-05
9.07344e-05
0.000104188
0.000185161
6.16419e-05
0.000255447
0.00026209
0.00019664
0.00013323
0.000107104
0.000102755
0.000104923
0.000146737
0.000180913
0.113761
0.0123463
0.0108682
0.0108659
0.0108658
0.0108661
0.010866
0.0108681
0.0123438
0.113787
0.0393959
0.00103223
0.00027826
0.000273199
0.000266442
0.000275974
0.000275877
0.000273062
0.00102948
0.0394216
0.0167319
0.000645589
1.34643e-06
1.24951e-06
1.66013e-06
1.29255e-06
1.29635e-06
2.29129e-06
0.000638659
0.01677
0.00844119
0.000573386
1.37324e-07
1.80921e-08
1.00935e-08
2.25773e-08
2.67348e-08
5.94468e-08
0.000574603
0.00848597
0.00487332
0.000420672
1.55056e-06
5.96815e-08
6.35667e-08
1.45728e-07
1.8721e-07
2.18607e-06
0.000424512
0.00490925
0.00311747
0.000291792
3.30882e-06
4.61494e-07
5.00542e-07
8.33523e-07
1.08433e-06
2.89666e-06
0.000295729
0.00314127
0.00215747
0.000228269
5.05487e-06
1.24013e-06
1.23102e-06
1.85311e-06
1.59898e-06
3.27936e-06
0.000225178
0.00217297
0.00158601
0.00021203
5.00861e-06
1.47671e-06
1.69158e-06
1.53477e-06
1.81735e-06
4.78375e-06
0.00020761
0.00159683
0.0012211
0.000192192
5.09908e-06
2.14363e-06
1.95647e-06
2.7953e-06
2.39198e-06
5.33381e-06
0.000183182
0.00122934
0.000974553
0.000174951
6.57857e-06
2.20086e-06
2.40586e-06
2.79933e-06
3.19056e-06
7.39764e-06
0.000163525
0.000981733
0.000800796
0.000161762
7.46264e-06
2.71531e-06
2.92794e-06
2.46089e-06
3.8406e-06
7.6731e-06
0.000147791
0.000807877
0.000673635
0.000152827
8.84104e-06
2.46703e-06
2.79299e-06
2.29358e-06
4.31341e-06
7.9325e-06
0.000130099
0.000681355
0.000577688
0.000142639
9.45855e-06
3.42708e-06
3.46721e-06
2.84237e-06
4.1098e-06
7.79364e-06
0.000113373
0.000585994
0.000503265
0.000136146
1.02708e-05
3.58344e-06
3.18178e-06
3.2407e-06
4.9055e-06
7.93191e-06
0.000100307
0.000512427
0.000444202
0.000127713
1.07801e-05
3.67128e-06
3.40771e-06
3.48369e-06
4.97672e-06
7.88156e-06
9.06698e-05
0.000454014
0.000396266
0.000122291
1.15042e-05
3.69975e-06
3.38669e-06
3.93841e-06
4.78098e-06
7.23692e-06
8.34983e-05
0.000407589
0.000356673
0.000118811
1.20225e-05
3.8115e-06
3.29749e-06
4.00784e-06
5.24109e-06
7.4362e-06
7.74509e-05
0.000369142
0.000323331
0.000118297
1.30531e-05
3.9044e-06
3.31299e-06
4.0723e-06
5.23337e-06
7.40243e-06
7.28938e-05
0.000338329
0.000294722
0.000117577
1.42588e-05
3.57187e-06
2.89659e-06
3.8436e-06
4.99269e-06
7.31309e-06
6.81169e-05
0.000311476
0.000269738
0.000120758
1.59126e-05
3.50233e-06
3.23646e-06
4.00879e-06
5.26605e-06
6.80183e-06
6.39108e-05
0.000290319
0.000247363
0.000122164
1.79538e-05
3.78159e-06
3.03244e-06
3.99849e-06
5.23786e-06
6.6378e-06
5.89209e-05
0.000270362
0.000226736
0.000122686
2.07761e-05
4.28144e-06
3.04382e-06
4.00218e-06
4.98744e-06
6.35177e-06
5.39399e-05
0.000255368
0.000207285
0.000123996
2.48056e-05
5.3646e-06
3.34666e-06
3.98439e-06
5.35302e-06
5.84001e-06
4.86676e-05
0.000239296
0.000188497
0.000131602
3.00703e-05
6.49616e-06
3.77855e-06
3.96427e-06
5.0154e-06
6.36787e-06
4.30556e-05
0.000228171
0.000170066
0.000141176
3.47884e-05
8.37942e-06
4.44196e-06
4.8555e-06
5.59743e-06
6.25402e-06
3.79848e-05
0.000213615
0.000151197
0.000146887
4.65345e-05
1.11179e-05
5.44751e-06
4.96276e-06
5.48613e-06
6.54628e-06
3.23442e-05
0.000204369
0.000131588
0.000152648
6.42427e-05
1.64617e-05
7.42954e-06
5.40967e-06
5.79443e-06
6.66139e-06
2.81797e-05
0.00018896
0.000110582
0.000161134
8.60523e-05
2.4312e-05
1.0519e-05
6.77852e-06
6.52071e-06
7.76441e-06
2.30702e-05
0.000178754
8.99619e-05
0.000175436
0.000114649
3.87587e-05
1.5687e-05
9.24113e-06
8.05225e-06
8.58785e-06
2.15553e-05
0.000155923
7.53141e-05
0.000194729
0.000155587
6.71056e-05
2.72605e-05
1.41829e-05
1.028e-05
1.08664e-05
2.35457e-05
0.000141912
0.113688
0.0123415
0.0108662
0.0108634
0.010864
0.0108634
0.0108634
0.0108659
0.012339
0.113715
0.0392128
0.00103151
0.00027962
0.000258758
0.000274531
0.000258074
0.000259965
0.000273823
0.00102654
0.0392378
0.0165824
0.000625078
1.50603e-06
2.27282e-06
1.3664e-06
2.40018e-06
1.42436e-06
1.40472e-06
0.00062273
0.0166174
0.00834285
0.000562418
4.73108e-09
3.24376e-09
3.81077e-09
6.49881e-09
1.09165e-09
1.23011e-08
0.000561404
0.00838118
0.00481172
0.000412522
3.46468e-08
3.17471e-11
5.00014e-12
6.26403e-12
3.51149e-12
2.16027e-08
0.000427036
0.00484319
0.00307801
0.000291425
5.40768e-07
1.2435e-09
1.10949e-12
2.12956e-10
2.87998e-11
4.09297e-08
0.000290212
0.00309931
0.00213259
0.000227803
1.23675e-06
2.92924e-09
3.2783e-11
1.254e-09
1.18328e-10
1.59182e-07
0.000249514
0.00214599
0.00156782
0.000211008
2.21763e-06
2.09263e-08
3.97382e-10
2.19353e-09
1.27982e-10
2.67107e-07
0.000222933
0.00157905
0.00120845
0.000197443
2.63077e-06
1.70079e-08
1.86207e-09
8.20716e-09
2.38933e-10
3.94257e-07
0.000196207
0.00121801
0.000965449
0.000174049
3.26366e-06
3.24546e-08
5.39219e-09
8.26642e-09
2.15297e-10
4.88623e-07
0.000165468
0.000975008
0.000793644
0.000159273
3.55977e-06
3.302e-08
7.20393e-09
6.71416e-09
5.20854e-10
7.33042e-07
0.000146208
0.000803815
0.000667774
0.000143977
5.07892e-06
5.84339e-08
1.15768e-08
1.2819e-08
6.27605e-10
9.26015e-07
0.000129343
0.000678992
0.000572537
0.000130673
5.15187e-06
6.91321e-08
1.36336e-08
1.29424e-08
7.81686e-10
1.04631e-06
0.000112302
0.000585037
0.000498699
0.000118475
5.58098e-06
8.38109e-08
1.65683e-08
1.86119e-08
1.00425e-09
1.07278e-06
9.82135e-05
0.000512476
0.000439962
0.000106645
5.37151e-06
1.21769e-07
1.52988e-08
1.04765e-08
1.26849e-09
8.89898e-07
8.77795e-05
0.000454742
0.000392369
0.000103281
6.81812e-06
1.44341e-07
2.51742e-08
1.06898e-08
2.62807e-09
1.10264e-06
7.95303e-05
0.000408804
0.000353011
0.000101488
7.296e-06
1.90882e-07
3.16076e-08
1.69075e-08
5.02517e-09
1.34977e-06
7.29831e-05
0.000370632
0.00031988
0.000100663
7.05479e-06
2.22466e-07
3.57164e-08
2.23284e-08
1.20016e-08
1.66653e-06
6.73686e-05
0.000340006
0.000291429
0.000100918
7.5136e-06
2.96401e-07
3.10127e-08
2.1943e-08
1.35239e-08
1.67823e-06
6.2237e-05
0.000313107
0.000266509
0.0001004
8.52482e-06
3.8902e-07
4.73318e-08
3.17952e-08
2.59282e-08
1.70233e-06
5.77678e-05
0.000291999
0.000244396
0.000107636
9.95029e-06
5.60408e-07
4.74715e-08
3.6418e-08
2.76619e-08
1.65758e-06
5.28854e-05
0.00027179
0.000223971
0.000107418
1.25607e-05
8.52819e-07
8.55185e-08
5.29587e-08
2.9767e-08
1.5207e-06
4.85682e-05
0.000256941
0.000204888
0.000111926
1.53658e-05
1.25723e-06
1.07382e-07
6.36621e-08
4.20678e-08
1.35051e-06
4.32984e-05
0.000240501
0.000186593
0.000118737
2.01199e-05
2.0682e-06
2.41089e-07
7.56241e-08
5.65228e-08
1.16476e-06
3.86605e-05
0.00022972
0.00016874
0.000128411
2.55323e-05
3.25416e-06
3.53741e-07
1.44267e-07
7.95802e-08
9.83136e-07
3.28377e-05
0.000214552
0.000150873
0.000136011
3.57008e-05
5.23999e-06
7.99935e-07
1.66836e-07
1.33043e-07
8.04729e-07
2.81608e-05
0.000205974
0.000132707
0.000140919
5.15709e-05
8.55537e-06
1.28042e-06
3.61808e-07
1.57681e-07
6.59405e-07
2.1931e-05
0.000189028
0.000114015
0.000147074
7.0814e-05
1.48759e-05
2.77891e-06
5.26411e-07
3.13271e-07
5.27796e-07
1.78889e-05
0.000179675
9.51823e-05
0.000156416
9.21373e-05
2.44176e-05
5.1744e-06
1.32309e-06
4.01437e-07
6.13338e-07
1.21892e-05
0.000153361
7.66906e-05
0.000166143
0.000119422
3.85077e-05
1.027e-05
2.71944e-06
9.10791e-07
6.96359e-07
1.03281e-05
0.000139841
0.11367
0.0123425
0.0108666
0.0108634
0.0108635
0.0108634
0.0108634
0.0108659
0.0123401
0.113697
0.0391567
0.00102929
0.000284804
0.000258835
0.000258438
0.000258656
0.000258369
0.000270678
0.00102709
0.0391817
0.0165277
0.000628564
1.74716e-06
1.79311e-06
1.88677e-06
1.65031e-06
1.85128e-06
1.2379e-06
0.000626548
0.0165621
0.00830077
0.000561388
5.76556e-09
6.55433e-10
5.67615e-10
7.99406e-10
6.60884e-10
2.20614e-08
0.000560892
0.0083377
0.00478107
0.000415301
4.21962e-08
3.06261e-13
7.79921e-14
1.41668e-14
3.51686e-12
1.18813e-07
0.000442275
0.00481177
0.00305458
0.000288967
3.14641e-07
3.28104e-12
1e-15
1e-15
5.46692e-12
3.33127e-07
0.000308908
0.00307623
0.00211398
0.000228284
9.85374e-07
3.02554e-11
1e-15
6.97084e-15
4.06886e-11
8.32335e-07
0.000237055
0.00212823
0.00155424
0.000199114
1.94033e-06
4.79211e-10
2.78959e-15
7.31207e-14
1.2278e-10
1.28033e-06
0.000207089
0.00156462
0.00119725
0.000186716
2.13437e-06
5.12917e-09
1.01431e-13
2.67947e-13
2.32742e-10
1.59194e-06
0.000193709
0.00120645
0.000956067
0.000172299
3.09902e-06
6.99438e-09
1.26388e-12
4.18587e-12
4.30941e-10
1.81333e-06
0.000173612
0.000965819
0.000785979
0.000161797
3.84542e-06
2.25054e-08
2.66253e-11
4.33244e-12
3.97277e-10
1.70533e-06
0.000153773
0.000796698
0.00066151
0.000147429
5.31357e-06
3.13351e-08
1.18029e-10
1.89552e-11
4.37743e-10
1.73383e-06
0.000134502
0.000673274
0.000567462
0.000133682
5.62921e-06
4.60988e-08
1.19774e-10
2.43913e-11
8.00031e-10
1.53686e-06
0.000117737
0.00057999
0.000494494
0.000120322
5.45671e-06
6.4349e-08
4.88927e-10
4.49122e-11
1.0917e-09
1.82623e-06
0.00010363
0.000508063
0.000436579
0.000110389
6.52755e-06
8.74512e-08
9.71549e-10
4.70753e-11
2.08943e-09
1.83344e-06
9.23361e-05
0.000450863
0.000389553
0.000101072
6.57575e-06
1.15613e-07
9.69436e-10
5.55958e-11
2.71585e-09
1.78902e-06
8.33412e-05
0.000405394
0.000350729
9.88696e-05
7.16477e-06
1.51488e-07
3.90499e-09
6.76539e-11
1.86987e-09
1.82705e-06
7.55932e-05
0.00036753
0.000317924
9.60463e-05
6.77459e-06
1.93095e-07
3.72718e-09
2.25415e-10
4.77002e-09
1.89902e-06
6.92779e-05
0.000337189
0.000289837
9.78985e-05
7.13145e-06
2.46486e-07
9.61845e-09
1.89731e-10
3.96609e-09
1.84026e-06
6.304e-05
0.000310438
0.000265216
9.77083e-05
8.32182e-06
3.65001e-07
1.09301e-08
7.7441e-10
3.89583e-09
1.81492e-06
5.79657e-05
0.000289483
0.000243159
9.92078e-05
9.8405e-06
5.2373e-07
2.8843e-08
3.91356e-10
4.34783e-09
1.69083e-06
5.24144e-05
0.000269344
0.000223037
0.000103523
1.21883e-05
7.93101e-07
3.65811e-08
3.20099e-09
4.41376e-09
1.5375e-06
4.79244e-05
0.000254584
0.000204164
0.000108948
1.5507e-05
1.297e-06
1.00699e-07
3.82862e-09
5.37542e-09
1.35805e-06
4.24992e-05
0.00023823
0.000186016
0.000118026
1.92666e-05
1.91975e-06
1.40415e-07
1.66123e-08
4.81577e-09
1.1658e-06
3.81716e-05
0.000227548
0.000168395
0.000129713
2.64868e-05
3.27587e-06
3.64315e-07
2.31338e-08
9.43627e-09
9.70543e-07
3.24107e-05
0.000212692
0.000150589
0.000136795
3.67384e-05
5.22231e-06
6.03736e-07
9.14505e-08
1.49325e-08
7.53851e-07
2.80931e-05
0.000204044
0.000132404
0.000142808
5.35535e-05
8.84719e-06
1.41733e-06
1.52082e-07
3.40867e-08
5.82225e-07
2.18836e-05
0.000187768
0.000113306
0.000148071
7.19413e-05
1.47901e-05
2.4873e-06
4.85304e-07
6.48225e-08
3.77204e-07
1.81209e-05
0.000178339
9.39322e-05
0.000158002
9.35208e-05
2.47188e-05
5.24245e-06
9.25654e-07
1.35918e-07
3.25153e-07
1.20553e-05
0.000152624
7.37953e-05
0.000165531
0.000119508
3.83334e-05
9.91952e-06
2.54242e-06
6.58776e-07
3.70473e-07
1.07748e-05
0.000138807
0.11367
0.0123426
0.0108658
0.0108634
0.0108635
0.0108635
0.0108634
0.0108658
0.0123401
0.113697
0.0391569
0.00103157
0.000266405
0.000258227
0.000259391
0.000257859
0.000256873
0.000268721
0.00102707
0.0391816
0.0165276
0.000627026
1.83096e-06
2.01029e-06
1.51752e-06
1.87239e-06
3.07935e-06
1.26549e-06
0.000626195
0.0165617
0.00830087
0.000563385
1.95807e-08
5.50499e-10
9.68364e-10
6.2918e-10
1.45898e-09
2.23517e-08
0.000560704
0.00833739
0.00478093
0.000412346
1.37781e-07
1.76584e-13
2.66745e-12
1.94045e-14
3.86554e-15
1.15315e-07
0.000419927
0.00481082
0.00305484
0.000294977
5.10756e-07
1.37504e-11
1.28828e-14
1e-15
2.01969e-13
2.91783e-07
0.000282254
0.00307507
0.00211404
0.000229569
1.4123e-06
1.44023e-10
1.51029e-15
2.3014e-15
1.51456e-10
7.37983e-07
0.000241157
0.00212718
0.00155449
0.000201649
1.95386e-06
1.08569e-09
2.35603e-13
2.19057e-14
8.10533e-10
1.46694e-06
0.000216616
0.00156461
0.00119726
0.000186254
1.67731e-06
3.25477e-09
3.44056e-13
4.27815e-14
8.06093e-10
1.15343e-06
0.000194539
0.00120658
0.000956256
0.000169473
3.13044e-06
9.06537e-09
5.2155e-13
1.76128e-13
2.08892e-09
2.63365e-06
0.000174976
0.000965671
0.000786078
0.000154219
2.91933e-06
9.79635e-09
9.47029e-14
5.91664e-13
1.4993e-09
2.75107e-06
0.000157177
0.000796426
0.00066133
0.000143675
3.41317e-06
2.87358e-08
4.42365e-12
1.24872e-12
1.32773e-09
2.91509e-06
0.000139401
0.000672899
0.000567197
0.000134116
3.62096e-06
3.185e-08
3.32432e-12
2.81956e-12
3.82073e-09
2.75002e-06
0.000124676
0.000579532
0.000494276
0.000125529
4.42749e-06
4.18397e-08
1.58415e-11
5.41042e-12
2.84836e-09
2.27928e-06
0.000112097
0.000507612
0.000436527
0.000116164
4.84297e-06
6.5787e-08
4.49807e-11
8.52184e-12
4.07254e-09
2.08704e-06
0.000100838
0.000450585
0.000389634
0.000106585
5.09702e-06
8.67514e-08
5.2369e-11
1.48757e-11
4.60625e-09
1.9902e-06
9.02369e-05
0.000405316
0.000350804
0.0001011
5.42265e-06
1.24205e-07
2.93074e-10
1.89216e-11
6.03012e-09
2.30998e-06
8.06252e-05
0.000367693
0.000318091
0.000100719
5.95073e-06
1.66642e-07
1.40552e-09
8.58004e-11
6.57193e-09
2.24985e-06
7.20602e-05
0.00033743
0.000289998
0.000100894
6.45982e-06
2.17474e-07
3.98694e-09
1.53193e-10
9.27612e-09
2.2395e-06
6.44056e-05
0.000310789
0.000265364
0.000101806
7.83478e-06
3.19546e-07
3.94665e-09
2.4436e-10
9.31585e-09
2.09202e-06
5.81265e-05
0.000289738
0.000243342
0.000104964
9.11297e-06
4.68376e-07
1.92739e-08
6.86753e-10
9.32359e-09
1.86658e-06
5.21015e-05
0.000269608
0.000223251
0.000108399
1.19185e-05
7.46826e-07
2.97222e-08
1.39101e-09
7.82382e-09
1.62832e-06
4.72872e-05
0.000254697
0.00020433
0.000109448
1.42678e-05
1.11814e-06
8.74681e-08
2.32189e-09
8.43544e-09
1.38982e-06
4.19434e-05
0.00023832
0.000186095
0.000114064
1.87715e-05
1.78978e-06
1.34971e-07
1.33737e-08
7.35886e-09
1.1618e-06
3.75988e-05
0.000227553
0.000168152
0.000122556
2.31722e-05
2.89641e-06
3.44704e-07
2.20163e-08
1.11939e-08
9.53657e-07
3.20658e-05
0.000212683
0.000150174
0.000131165
3.18074e-05
4.49503e-06
5.35496e-07
8.1101e-08
1.44981e-08
7.30295e-07
2.77787e-05
0.000203824
0.000131874
0.000137723
4.85141e-05
7.64105e-06
1.25711e-06
1.34955e-07
3.17857e-08
5.60435e-07
2.16894e-05
0.000188615
0.000112742
0.000144149
6.79257e-05
1.34485e-05
2.19395e-06
4.2725e-07
6.46723e-08
3.65298e-07
1.79866e-05
0.000174846
9.33246e-05
0.000155319
9.04196e-05
2.32526e-05
4.86591e-06
8.25149e-07
1.06338e-07
2.93096e-07
1.18113e-05
0.00015522
7.32508e-05
0.000164261
0.000117748
3.74157e-05
9.56333e-06
2.43213e-06
5.91939e-07
3.77667e-07
1.09133e-05
0.000130313
0.113688
0.0123414
0.0108659
0.0108633
0.0108634
0.0108644
0.0108634
0.0108657
0.012339
0.113715
0.0392126
0.00102929
0.000271791
0.000257806
0.000258123
0.000281438
0.000260632
0.000268279
0.00102603
0.0392372
0.0165818
0.000621694
1.23929e-06
2.92203e-06
2.09652e-06
1.48735e-06
1.37774e-06
1.41587e-06
0.0006248
0.0166158
0.00834172
0.000559332
2.55032e-08
4.86195e-09
6.41222e-10
3.69979e-09
1.29927e-09
1.32423e-08
0.000561338
0.00837847
0.00481115
0.000422657
2.72115e-07
3.95475e-13
1.83067e-12
3.04122e-12
5.7199e-12
5.01978e-08
0.000419706
0.00484044
0.00307868
0.000347862
9.65837e-07
1.54059e-09
1.50068e-11
2.4395e-11
1.52295e-11
1.56877e-07
0.000282667
0.00309726
0.00213327
0.000280725
1.92974e-06
5.73434e-09
6.54939e-11
3.21838e-10
7.50318e-11
4.29922e-07
0.000244916
0.0021449
0.00156959
0.00024941
2.16517e-06
1.55539e-08
3.20929e-10
1.53227e-09
2.74211e-10
1.03958e-06
0.000217006
0.00157824
0.00120939
0.000222529
2.46066e-06
3.14437e-08
1.46197e-09
2.95832e-09
3.66376e-10
1.47004e-06
0.000190773
0.00121806
0.000966282
0.0001933
2.37875e-06
4.32956e-08
2.41013e-09
5.14465e-09
4.36811e-10
1.48591e-06
0.000165556
0.000975148
0.000794226
0.000165755
3.14168e-06
4.147e-08
4.15551e-09
6.26759e-09
9.37254e-10
1.4806e-06
0.000149417
0.000803895
0.000667836
0.00014881
3.36616e-06
5.32616e-08
5.06958e-09
1.08524e-08
1.49367e-09
1.53274e-06
0.000134629
0.000678895
0.000572439
0.000139455
4.24391e-06
7.86867e-08
1.27794e-08
1.6373e-08
3.33858e-09
1.37854e-06
0.000120412
0.000584808
0.000498553
0.000129737
4.4753e-06
9.40734e-08
1.05705e-08
2.1227e-08
4.02117e-09
1.79076e-06
0.000107112
0.000512308
0.000440033
0.000122686
6.04667e-06
1.31749e-07
1.93898e-08
2.4945e-08
5.21941e-09
1.85225e-06
9.61076e-05
0.000454778
0.000392604
0.000112928
6.64633e-06
1.65211e-07
1.38974e-08
2.98796e-08
1.10606e-08
1.7807e-06
8.65924e-05
0.000408988
0.00035338
0.000109781
6.69182e-06
1.98345e-07
2.39872e-08
3.19912e-08
7.02131e-09
1.9124e-06
7.90873e-05
0.000371005
0.000320288
0.000108283
7.10281e-06
2.56067e-07
2.32812e-08
3.56618e-08
2.39121e-08
2.12504e-06
7.25491e-05
0.000340411
0.000291875
0.000107966
7.81356e-06
3.16103e-07
2.84859e-08
3.93376e-08
2.89926e-08
2.08789e-06
6.67719e-05
0.000313676
0.000266963
0.000108774
9.33245e-06
4.62202e-07
4.16754e-08
4.16242e-08
3.00853e-08
2.11047e-06
6.15258e-05
0.000292527
0.00024468
0.000108787
1.09895e-05
6.21638e-07
5.63791e-08
4.78104e-08
3.88256e-08
2.02193e-06
5.59954e-05
0.000272426
0.000224497
0.000117652
1.37423e-05
9.82464e-07
1.00741e-07
5.07565e-08
5.88332e-08
1.85977e-06
5.10722e-05
0.000257559
0.000205366
0.000117476
1.67188e-05
1.42144e-06
1.41583e-07
7.24424e-08
7.54051e-08
1.64934e-06
4.5271e-05
0.000241061
0.000187
0.000122049
2.10401e-05
2.26696e-06
2.83025e-07
8.39185e-08
8.75752e-08
1.42777e-06
4.03619e-05
0.000230444
0.000169094
0.000131097
2.65973e-05
3.35603e-06
4.20732e-07
1.35897e-07
1.34362e-07
1.18162e-06
3.41414e-05
0.00021511
0.000151216
0.000138145
3.84765e-05
5.52301e-06
8.71599e-07
1.83221e-07
1.47078e-07
9.69744e-07
2.93658e-05
0.000206674
0.000133077
0.000142969
5.34714e-05
9.1623e-06
1.47991e-06
3.78608e-07
2.54706e-07
7.5931e-07
2.27917e-05
0.000190042
0.000114426
0.000149247
7.39523e-05
1.52011e-05
3.01687e-06
5.89359e-07
2.88935e-07
6.20475e-07
1.86245e-05
0.000179894
9.56615e-05
0.000158608
9.43286e-05
2.61125e-05
5.7131e-06
1.38578e-06
5.91682e-07
6.71895e-07
1.24029e-05
0.000155215
7.71251e-05
0.00016813
0.000122771
3.89674e-05
1.08076e-05
2.85465e-06
8.80529e-07
7.17157e-07
1.11408e-05
0.000136143
0.11376
0.0123463
0.0108681
0.0108658
0.0108659
0.010866
0.0108657
0.0108679
0.0123438
0.113787
0.0393978
0.00103187
0.000273521
0.000269674
0.000268742
0.000273766
0.000267866
0.000269978
0.00102874
0.0394221
0.0167293
0.000651343
2.04304e-06
1.24833e-06
1.33084e-06
1.42123e-06
1.34829e-06
3.69664e-06
0.000647652
0.0167645
0.00843574
0.000570312
1.1254e-07
8.14659e-09
1.74859e-08
6.27334e-09
6.95664e-09
6.40407e-07
0.000569191
0.00847326
0.0048681
0.000418061
1.13514e-06
9.83599e-07
8.88816e-08
2.91167e-08
2.87121e-07
1.99618e-06
0.000416877
0.00489698
0.00311347
0.000288723
2.67153e-06
1.23639e-06
2.64913e-07
1.21888e-07
1.50578e-06
3.01317e-06
0.000281283
0.00313225
0.0021556
0.000221689
4.14738e-06
1.46337e-06
6.65807e-07
3.65263e-07
1.16461e-06
3.87502e-06
0.000229425
0.00216814
0.00158543
0.000188381
4.29524e-06
2.35087e-06
1.15393e-06
9.61817e-07
2.61252e-06
5.02859e-06
0.000198805
0.00159501
0.00122103
0.000173127
4.40408e-06
2.94879e-06
1.66623e-06
1.51934e-06
2.78469e-06
5.81412e-06
0.000176252
0.00122878
0.000974802
0.000161765
5.97925e-06
3.64175e-06
1.72503e-06
1.78389e-06
3.04778e-06
6.01489e-06
0.000159053
0.000981945
0.000801054
0.000152339
7.27186e-06
4.27272e-06
2.23605e-06
1.96565e-06
3.42112e-06
6.78836e-06
0.000146392
0.000807997
0.00067385
0.000142642
8.15573e-06
4.68976e-06
3.08224e-06
2.01666e-06
3.38215e-06
6.7229e-06
0.000136078
0.000681164
0.00057781
0.000134023
8.43304e-06
5.60671e-06
3.29506e-06
2.90214e-06
3.41655e-06
7.54344e-06
0.000126953
0.000585654
0.000503292
0.000126559
8.98945e-06
5.13464e-06
3.38708e-06
2.92624e-06
3.15093e-06
7.63307e-06
0.000118135
0.000512246
0.000444284
0.00012127
8.61742e-06
5.49997e-06
3.37806e-06
2.6971e-06
3.57667e-06
7.6962e-06
0.000109416
0.000454199
0.000396464
0.000112921
1.04382e-05
5.47358e-06
2.99485e-06
2.75902e-06
3.57538e-06
7.27792e-06
0.000101118
0.000408099
0.000356829
0.000109626
1.08093e-05
5.45755e-06
2.99717e-06
2.94699e-06
3.38583e-06
6.90748e-06
9.30682e-05
0.000369985
0.00032349
0.000108271
1.08446e-05
5.36899e-06
3.06213e-06
3.15587e-06
3.37941e-06
7.20627e-06
8.58351e-05
0.000339301
0.000294822
0.000110016
1.07687e-05
5.38425e-06
3.21768e-06
3.39159e-06
3.56112e-06
7.16749e-06
7.87135e-05
0.000312616
0.000269679
0.000111893
1.14737e-05
4.66104e-06
3.28294e-06
3.52119e-06
3.74921e-06
6.87044e-06
7.21751e-05
0.000291405
0.000247146
0.000112843
1.35889e-05
5.4167e-06
3.40668e-06
3.69673e-06
4.00055e-06
6.81464e-06
6.55448e-05
0.000271526
0.000226661
0.000121858
1.58116e-05
5.21425e-06
3.60089e-06
3.82375e-06
4.21316e-06
6.70779e-06
5.91207e-05
0.000256455
0.000207172
0.000121946
2.00903e-05
5.51485e-06
3.89307e-06
4.06704e-06
4.34127e-06
6.71949e-06
5.26656e-05
0.000240419
0.000188269
0.000125917
2.36875e-05
6.14287e-06
4.29784e-06
4.21226e-06
4.75695e-06
6.44881e-06
4.62221e-05
0.000229205
0.00016974
0.000135992
3.12685e-05
7.97169e-06
4.90582e-06
5.0009e-06
5.07195e-06
6.85367e-06
4.03729e-05
0.000214753
0.000150865
0.000142836
4.34268e-05
1.03977e-05
5.89958e-06
5.48391e-06
5.49698e-06
6.96547e-06
3.39398e-05
0.000205347
0.000131451
0.000150058
6.29503e-05
1.58856e-05
7.49705e-06
6.91033e-06
6.65182e-06
6.78848e-06
2.94488e-05
0.000189889
0.000110859
0.000160211
8.59278e-05
2.37369e-05
1.07981e-05
7.59014e-06
7.13243e-06
9.10877e-06
2.40878e-05
0.000179599
9.0808e-05
0.00017607
0.000118393
3.89294e-05
1.69849e-05
9.29246e-06
8.81575e-06
9.19227e-06
2.19543e-05
0.000157491
7.6324e-05
0.000196186
0.000159026
7.13417e-05
2.7697e-05
1.44864e-05
1.07209e-05
1.06786e-05
2.40882e-05
0.000140236
0.114054
0.0139232
0.0123442
0.0123393
0.0123405
0.0123405
0.0123393
0.0123442
0.0139207
0.114078
0.0397785
0.00190101
0.00103182
0.00102694
0.00102692
0.00102752
0.00102719
0.00102959
0.00189341
0.0398011
0.0169721
0.00151365
0.00064061
0.000626806
0.000629298
0.000628936
0.000625526
0.000645978
0.00148836
0.0170205
0.00856827
0.00122256
0.000576321
0.000560677
0.000565111
0.000566023
0.00056336
0.000559757
0.00120172
0.00863662
0.00492777
0.000828604
0.000428211
0.000420665
0.000448706
0.000437596
0.000426797
0.000413602
0.000823326
0.0049848
0.00313676
0.00057057
0.000278422
0.000294368
0.000317048
0.000305665
0.000298863
0.000288029
0.000551334
0.00317215
0.0021542
0.000326206
0.000253827
0.000226326
0.000241565
0.000241076
0.00023459
0.000235463
0.000346223
0.00217818
0.00157568
0.000378583
0.000225927
0.00020145
0.000208797
0.00021
0.000207113
0.000210502
0.000384409
0.00158904
0.00120419
0.000282371
0.000197843
0.000187975
0.000194067
0.000195111
0.000194061
0.000197643
0.00027414
0.00121428
0.000954294
0.000237875