/*--------------------------------*- C++ -*----------------------------------*\
| =========                 |                                                 |
| \\      /  F ield         | OpenFOAM: The Open Source CFD Toolbox           |
|  \\    /   O peration     | Version:  4.1                                   |
|   \\  /    A nd           | Web:      www.OpenFOAM.org                      |
|    \\/     M anipulation  |                                                 |
\*---------------------------------------------------------------------------*/
FoamFile
{
    version     2.0;
    format      ascii;
    class       volScalarField;
    location    "1100";
    object      nut;
}
// * * * * * * * * * * * * * * * * * * * * * * * * * * * * * * * * * * * * * //

dimensions      [0 2 -1 0 0 0 0];

internalField   nonuniform List<scalar> 
12000
(
0.00384207
0.00381988
0.0038146
0.00381348
0.00381321
0.00381323
0.00381354
0.00381463
0.00381771
0.00383943
0.00225476
0.00225346
0.00222993
0.00222453
0.00222304
0.00222303
0.00222463
0.00223078
0.00225598
0.00225851
0.00145984
0.00148029
0.00145045
0.00144323
0.00144092
0.00144091
0.00144324
0.00145032
0.00148122
0.00146074
0.00102595
0.00105173
0.00102798
0.00102101
0.00101828
0.00101842
0.00102069
0.00102624
0.00105102
0.00102669
0.00077278
0.00079666
0.000780791
0.000775105
0.000772474
0.00077229
0.000774999
0.000778423
0.00079511
0.000772296
0.000613632
0.000633691
0.000623703
0.000619243
0.000616854
0.000617007
0.0006192
0.000621853
0.000632652
0.000612881
0.000507454
0.000523352
0.000518975
0.000515697
0.000513752
0.000513557
0.000515967
0.000518379
0.000522648
0.00050717
0.000433229
0.000448555
0.000445646
0.000442972
0.000441208
0.000441175
0.000443218
0.000445588
0.000448397
0.000433224
0.000378442
0.000390745
0.000391419
0.000389462
0.000387943
0.000388064
0.000389807
0.000391682
0.000391012
0.000378986
0.0003366
0.000345003
0.00034992
0.000348701
0.000347361
0.000347532
0.000349016
0.000350384
0.00034567
0.000337648
0.000303896
0.000310281
0.000317494
0.000316862
0.000315615
0.00031576
0.000317118
0.000318375
0.000311015
0.00030538
0.000277809
0.000284755
0.000291603
0.000291282
0.000290136
0.000290233
0.000291679
0.000292699
0.000285612
0.00027981
0.00025643
0.000264589
0.000270477
0.000270248
0.000269222
0.000269301
0.000270773
0.000271673
0.000265753
0.000259093
0.000238542
0.000247746
0.000252889
0.00025265
0.000251797
0.000251898
0.000253284
0.000254185
0.000249121
0.000241977
0.000223321
0.000233247
0.00023806
0.000237775
0.000237089
0.000237251
0.000238498
0.000239478
0.000234979
0.00022765
0.000210182
0.000220723
0.000225361
0.000225098
0.000224576
0.000224846
0.000225977
0.000227028
0.000222884
0.000215529
0.00019865
0.000209748
0.000214435
0.00021419
0.000213792
0.000214151
0.00021522
0.000216385
0.000212551
0.000205244
0.000188332
0.000200027
0.000204825
0.000204722
0.000204455
0.000204975
0.000206029
0.000207209
0.000203664
0.000196441
0.000178906
0.000191353
0.000196383
0.000196351
0.000196247
0.000196833
0.000197974
0.000199392
0.000196085
0.000188977
0.000170051
0.000183358
0.00018863
0.00018898
0.00018906
0.00018984
0.000191018
0.000192527
0.00018951
0.000182556
0.000161482
0.000175935
0.000181664
0.000182303
0.000182556
0.00018342
0.000184849
0.000186613
0.000183946
0.000177233
0.000152796
0.000168549
0.000175125
0.000176278
0.000176845
0.000178046
0.000179474
0.000181332
0.000179093
0.000172659
0.000143568
0.000161078
0.000169126
0.000170678
0.000171411
0.000172771
0.000174598
0.000176945
0.000175159
0.000169123
0.000133066
0.000153071
0.000163025
0.000165544
0.000166757
0.000168448
0.000170318
0.000172873
0.00017163
0.000166098
0.000120145
0.000143311
0.000156545
0.000160355
0.000161869
0.000163907
0.00016641
0.000169627
0.00016916
0.000164355
0.000101472
0.00013136
0.000149054
0.000155105
0.000157751
0.000160259
0.000162744
0.000166568
0.000166707
0.00016236
7.4801e-05
0.000114251
0.000139712
0.000148789
0.000152323
0.000155721
0.000159242
0.000164305
0.000165365
0.000164052
6.29528e-05
9.34349e-05
0.000124985
0.000139876
0.000147997
0.000151591
0.000155429
0.000161045
0.00016469
0.000161419
7.31869e-05
8.78302e-05
0.000101192
0.000120829
0.000135782
0.000146791
0.000150371
0.000160052
0.000163642
0.000170228
9.28916e-05
0.000104861
0.000107934
0.000106351
0.000118014
0.000123898
0.000142095
0.00014944
0.000164744
0.00016657
0.00381986
3.0658e-05
2.54113e-05
2.54001e-05
2.54046e-05
2.54046e-05
2.54001e-05
2.54114e-05
3.06447e-05
0.00382415
0.00225341
3.28603e-05
1.59355e-05
1.61498e-05
1.62438e-05
1.62287e-05
1.61803e-05
1.59203e-05
3.29304e-05
0.00227256
0.00148019
0.000235134
0.000108207
0.000103305
0.000103071
0.000103636
0.000102448
0.000109953
0.000232136
0.00150179
0.00105162
0.000528842
0.000249898
0.000251523
0.000249606
0.00025331
0.000247944
0.00024621
0.000524906
0.00108091
0.000796466
0.000567385
0.000158829
0.000168136
0.000154066
0.000149309
0.000159969
0.000152977
0.000558025
0.000824537
0.000633424
0.000484505
9.28916e-05
8.71631e-05
9.1914e-05
9.41719e-05
8.21728e-05
8.58118e-05
0.000490393
0.000655027
0.000523018
0.00029402
7.20196e-05
6.79952e-05
7.17964e-05
6.57775e-05
6.45683e-05
6.89734e-05
0.000268956
0.000538979
0.000448148
0.000610929
8.23583e-05
6.64098e-05
7.14392e-05
6.45887e-05
6.43096e-05
6.39611e-05
0.00058985
0.000458292
0.000390238
0.000224803
8.50478e-05
7.92153e-05
8.10086e-05
7.40183e-05
7.82125e-05
7.53312e-05
0.000217773
0.000398044
0.000344382
0.000194401
8.56869e-05
8.78388e-05
8.30962e-05
7.72064e-05
8.73937e-05
8.6133e-05
0.000187421
0.000349972
0.000309521
0.000157047
8.81453e-05
8.58821e-05
8.21679e-05
8.11427e-05
9.28368e-05
9.01614e-05
0.0001535
0.000313008
0.000283849
0.000158886
9.17683e-05
8.14007e-05
7.84082e-05
8.34412e-05
9.12935e-05
9.30735e-05
0.000153238
0.000286445
0.000263529
0.00018527
9.24963e-05
7.74088e-05
7.40922e-05
8.41115e-05
8.88213e-05
9.46351e-05
0.000183161
0.000266068
0.000246503
0.000175687
9.19582e-05
7.46053e-05
6.93611e-05
8.32754e-05
8.61236e-05
9.31394e-05
0.000171067
0.00024951
0.000231781
0.000170483
8.89975e-05
7.20737e-05
6.59265e-05
8.08988e-05
8.47688e-05
9.06806e-05
0.000164718
0.000235545
0.000218978
0.000168737
8.76056e-05
7.04822e-05
6.30977e-05
7.7981e-05
8.24372e-05
8.70904e-05
0.000161771
0.000223674
0.000207678
0.00016664
8.60466e-05
6.83594e-05
6.20029e-05
7.508e-05
8.13717e-05
8.38988e-05
0.000157904
0.000213357
0.000197575
0.000167563
8.50564e-05
6.82831e-05
6.16706e-05
7.25248e-05
7.90605e-05
8.17793e-05
0.000154242
0.000204591
0.00018849
0.000166842
9.01796e-05
6.66634e-05
6.26277e-05
7.04658e-05
7.72627e-05
7.83243e-05
0.000148016
0.000196833
0.000180012
0.000165104
9.46988e-05
7.04932e-05
6.41499e-05
6.98112e-05
7.6106e-05
7.84813e-05
0.000142087
0.000190433
0.000172137
0.000170812
9.97753e-05
7.45847e-05
6.55521e-05
6.75159e-05
7.29952e-05
7.50259e-05
0.000133811
0.000184487
0.000164253
0.000173487
0.00010498
7.9074e-05
6.90862e-05
7.01574e-05
7.11196e-05
7.36637e-05
0.000126563
0.000179716
0.000156484
0.000176749
0.000115031
7.95944e-05
7.22002e-05
7.28313e-05
7.46012e-05
7.93638e-05
0.00011774
0.000174806
0.000148376
0.00017639
0.000121948
8.45711e-05
7.55488e-05
7.23653e-05
7.72222e-05
7.99819e-05
0.00011245
0.000171123
0.00013921
0.000180568
0.000132344
9.00172e-05
7.76709e-05
7.89896e-05
8.02775e-05
7.84827e-05
0.000105118
0.000166567
0.000128377
0.000184475
0.000153835
9.80069e-05
8.40269e-05
7.71452e-05
7.88561e-05
8.28764e-05
0.000100703
0.000162958
0.000115819
0.000196554
0.000162253
0.000118322
9.4996e-05
8.20865e-05
8.26046e-05
8.47724e-05
0.000101765
0.000160135
9.84926e-05
0.000193155
0.000177548
0.000132454
0.00010983
9.41083e-05
9.22754e-05
8.58717e-05
0.000114584
0.000152523
8.67404e-05
0.000213163
0.000202071
0.000162518
0.000124342
0.00010266
9.77843e-05
9.70588e-05
8.63121e-05
0.000162599
8.8325e-05
0.000235931
0.000235876
0.000189978
0.000137925
0.000115655
0.000105862
0.000101207
0.000127245
0.000138034
0.00381459
2.54125e-05
2.09086e-05
2.09055e-05
2.09061e-05
2.09062e-05
2.09055e-05
2.09086e-05
2.54047e-05
0.00382282
0.00222995
1.59836e-05
2.01525e-06
1.94606e-06
1.82827e-06
2.00853e-06
1.99856e-06
1.91579e-06
1.59035e-05
0.0022527
0.00145037
0.000108453
8.12969e-10
5.11812e-10
3.43545e-09
4.45166e-10
4.51105e-10
1.12639e-08
0.000106728
0.0014718
0.00102803
0.000253052
3.01661e-10
1.08702e-12
5.11137e-13
2.29797e-12
3.71523e-12
1.36524e-10
0.000263066
0.00105118
0.000780628
0.000159055
3.04218e-07
6.21268e-11
5.85638e-11
8.90576e-10
2.32118e-09
1.44009e-06
0.000168863
0.000800413
0.000623343
9.29831e-05
2.78636e-06
3.01982e-08
4.13551e-08
1.49857e-07
4.77968e-07
9.71437e-07
9.92164e-05
0.000637477
0.000518533
7.53511e-05
3.7106e-06
5.06217e-07
7.38923e-07
1.46181e-06
1.01448e-06
9.13563e-07
7.66334e-05
0.000527473
0.000445077
8.55424e-05
3.67051e-06
1.0257e-06
1.26442e-06
1.05199e-06
5.22223e-07
2.13277e-06
8.57421e-05
0.000450182
0.000390872
8.954e-05
1.78248e-06
1.9005e-06
8.00683e-07
2.10416e-06
9.4251e-07
2.31546e-06
8.62334e-05
0.000394108
0.000349582
9.09521e-05
3.3547e-06
1.55666e-06
1.09705e-06
2.285e-06
1.61154e-06
4.19121e-06
8.51735e-05
0.000351484
0.00031711
9.28751e-05
4.49089e-06
1.43492e-06
1.69992e-06
1.5004e-06
2.20638e-06
4.89453e-06
8.44414e-05
0.000318515
0.000291192
9.60497e-05
6.14923e-06
1.44133e-06
1.62348e-06
9.79663e-07
2.88511e-06
5.51931e-06
7.91177e-05
0.000292593
0.000269932
9.60085e-05
6.84158e-06
2.72025e-06
2.62922e-06
1.79049e-06
2.68645e-06
5.63559e-06
7.25638e-05
0.000271626
0.000252168
9.80443e-05
8.44561e-06
3.24977e-06
2.30985e-06
2.26799e-06
3.96649e-06
6.56074e-06
6.76101e-05
0.000254285
0.000237096
9.63467e-05
9.29392e-06
3.44831e-06
2.92831e-06
2.91498e-06
4.4039e-06
7.05306e-06
6.48136e-05
0.000239502
0.000223998
9.78158e-05
1.0518e-05
3.57515e-06
3.06927e-06
3.61618e-06
4.23077e-06
6.4947e-06
6.35803e-05
0.000226989
0.000212542
0.000100282
1.13163e-05
4.00562e-06
3.2938e-06
3.85014e-06
5.3973e-06
7.41341e-06
6.29147e-05
0.000216018
0.000202318
0.00010746
1.29289e-05
4.27805e-06
3.48368e-06
4.14316e-06
5.52011e-06
8.04883e-06
6.32931e-05
0.000206792
0.000193158
0.000110891
1.46519e-05
3.5915e-06
2.75213e-06
3.99888e-06
5.23498e-06
8.75605e-06
6.28474e-05
0.000198401
0.000184852
0.000119212
1.70621e-05
3.38264e-06
3.66554e-06
4.64168e-06
6.03399e-06
8.15133e-06
6.2451e-05
0.000191544
0.000177154
0.000124442
1.92924e-05
3.78283e-06
3.2679e-06
4.83146e-06
6.47102e-06
8.24586e-06
6.03805e-05
0.000184925
0.000169632
0.000123165
2.39682e-05
4.05653e-06
3.28179e-06
5.05867e-06
6.12023e-06
8.19936e-06
5.76307e-05
0.000179796
0.0001622
0.000124791
2.98285e-05
6.0858e-06
3.73887e-06
5.09012e-06
7.18138e-06
6.99888e-06
5.40457e-05
0.000174191
0.00015463
0.000131987
3.71182e-05
7.75132e-06
4.40244e-06
4.82207e-06
6.40728e-06
8.56009e-06
4.92889e-05
0.000170249
0.000146953
0.000145348
4.23971e-05
1.04563e-05
5.79983e-06
6.85556e-06
7.73863e-06
8.22877e-06
4.50603e-05
0.000164836
0.000138807
0.000149272
5.74226e-05
1.44343e-05
6.97229e-06
6.75148e-06
7.15857e-06
9.3432e-06
3.92489e-05
0.000161275
0.000129811
0.000156555
7.81135e-05
2.1213e-05
1.06014e-05
6.68155e-06
7.58692e-06
7.96931e-06
3.51917e-05
0.00015492
0.000119262
0.000165618
9.86233e-05
3.16458e-05
1.36556e-05
8.89265e-06
7.29005e-06
1.05333e-05
2.88651e-05
0.000152575
0.000107705
0.000179658
0.00013128
4.70807e-05
2.18126e-05
1.22903e-05
9.99622e-06
9.6357e-06
2.45621e-05
0.000139552
9.84927e-05
0.000198463
0.000168549
8.24803e-05
3.19385e-05
1.81569e-05
1.11314e-05
1.30437e-05
2.37894e-05
0.00013949
0.00381347
2.54017e-05
2.09057e-05
2.09023e-05
2.09035e-05
2.09027e-05
2.09021e-05
2.09054e-05
2.53938e-05
0.00382197
0.0022247
1.63559e-05
2.08354e-06
1.7123e-06
2.03122e-06
1.70569e-06
1.73184e-06
1.95931e-06
1.61645e-05
0.0022469
0.00144324
0.000102655
6.30828e-10
1.69236e-08
5.71505e-10
2.09904e-08
2.10002e-09
6.66524e-10
0.000102769
0.00146294
0.00102113
0.00025788
2.37092e-14
1.79732e-11
1.01068e-14
1.52129e-10
3.40799e-15
1.20812e-13
0.000258777
0.00104092
0.000774919
0.000156579
1.48664e-11
1.05393e-13
4.10249e-20
8.5052e-16
8.32324e-20
1.51663e-12
0.000174271
0.000791529
0.000618831
9.14349e-05
6.82083e-08
2.229e-10
1.46154e-19
5.19419e-13
1.24297e-17
1.76483e-11
8.68837e-05
0.000630479
0.00051574
7.4243e-05
9.25351e-07
1.38955e-09
5.05395e-15
4.21763e-11
6.26395e-16
6.85321e-10
8.02851e-05
0.000522341
0.000442311
7.71381e-05
1.16334e-06
6.96546e-08
3.50885e-12
2.2398e-10
1.36276e-15
3.38187e-09
8.15967e-05
0.000446629
0.000389009
9.17554e-05
1.38965e-06
1.42828e-08
2.10249e-10
6.47915e-09
1.2895e-14
1.27285e-08
8.68751e-05
0.000391651
0.000348442
8.21791e-05
1.7727e-06
3.79363e-08
2.79034e-09
5.75634e-09
1.34422e-14
3.61456e-08
8.11088e-05
0.000350425
0.000316319
8.34269e-05
1.90124e-06
2.06476e-08
6.13146e-09
3.98451e-09
1.63301e-13
1.77975e-07
7.98225e-05
0.000318284
0.000290402
8.22207e-05
3.8139e-06
4.61615e-08
1.34235e-08
1.013e-08
2.99259e-13
5.57641e-07
7.67752e-05
0.000292691
0.000269066
8.04758e-05
3.79636e-06
5.58572e-08
9.20813e-09
1.25747e-08
5.89003e-13
1.13315e-06
7.10132e-05
0.000271859
0.000251243
7.79419e-05
4.38624e-06
6.17373e-08
1.27946e-08
1.60179e-08
1.20208e-12
3.0352e-06
6.58067e-05
0.000254613
0.000236023
7.3156e-05
4.02032e-06
1.15828e-07
9.60516e-09
2.54044e-09
3.60018e-12
8.78769e-07
6.26376e-05
0.000239903
0.000222948
7.79037e-05
6.34739e-06
1.14868e-07
2.46569e-08
4.99245e-09
3.73803e-11
9.13815e-07
6.04653e-05
0.000227455
0.000211416
8.27047e-05
7.11258e-06
1.75764e-07
3.35649e-08
1.27743e-08
2.68637e-10
1.13241e-06
5.92888e-05
0.000216529
0.000201282
8.75619e-05
6.37933e-06
1.57966e-07
4.10348e-08
6.66305e-08
2.91352e-09
2.0266e-06
5.82366e-05
0.000207368
0.000192038
9.26515e-05
6.9834e-06
2.62778e-07
2.37825e-08
1.97138e-08
7.86282e-09
1.743e-06
5.72133e-05
0.000198955
0.000183577
9.37105e-05
7.34122e-06
3.32257e-07
6.02258e-08
2.68739e-08
3.57357e-08
1.75375e-06
5.61652e-05
0.000192131
0.000176017
0.000107818
9.55285e-06
5.52899e-07
3.26985e-08
3.20216e-08
6.13758e-08
1.81144e-06
5.41686e-05
0.000185351
0.000168451
0.000105979
1.32833e-05
8.79401e-07
1.01954e-07
6.03572e-08
2.9362e-08
1.73711e-06
5.20727e-05
0.000180262
0.000161099
0.00011303
1.71542e-05
1.39434e-06
8.07844e-08
7.12845e-08
5.57946e-08
1.59675e-06
4.83876e-05
0.000174394
0.000153722
0.000121853
2.30744e-05
2.49528e-06
3.45505e-07
8.09733e-08
4.70878e-08
1.44083e-06
4.46697e-05
0.000170655
0.000146288
0.00013335
3.03946e-05
3.99617e-06
3.34168e-07
2.48423e-07
9.41175e-08
1.26962e-06
3.92113e-05
0.000164726
0.000138491
0.000138327
4.48063e-05
6.78755e-06
1.23657e-06
1.60257e-07
2.23496e-07
1.06635e-06
3.43714e-05
0.000161956
0.000130085
0.000145322
6.15478e-05
1.11297e-05
1.42134e-06
6.35468e-07
1.83661e-07
9.25157e-07
2.73406e-05
0.000154377
0.000120758
0.000153333
8.32856e-05
1.91038e-05
3.9426e-06
5.37661e-07
6.06059e-07
6.71875e-07
2.22638e-05
0.000152774
0.000110596
0.000164909
0.000107485
3.13012e-05
6.5955e-06
2.1398e-06
4.21778e-07
9.67023e-07
1.49133e-05
0.000137025
9.93939e-05
0.000176653
0.000140014
4.883e-05
1.3655e-05
3.37163e-06
1.30085e-06
7.3678e-07
1.0419e-05
0.00013948
0.0038132
2.54058e-05
2.09068e-05
2.09029e-05
2.09037e-05
2.09033e-05
2.09027e-05
2.0906e-05
2.53982e-05
0.00382171
0.00222302
1.62548e-05
2.21366e-06
1.71973e-06
1.71909e-06
1.72219e-06
1.71012e-06
1.90296e-06
1.62124e-05
0.00224529
0.00144084
0.000104248
9.22916e-10
6.36501e-09
8.03416e-09
4.39079e-09
7.28063e-09
6.14761e-10
0.000103748
0.00146032
0.00101828
0.000250682
3.12466e-14
2.93077e-15
3.39097e-15
3.08964e-15
4.00548e-15
2.99862e-12
0.000252288
0.00103745
0.000772161
0.000159635
2.83947e-11
1.49208e-20
5.56083e-22
1.60887e-22
2.6243e-19
5.09375e-10
0.000188925
0.000788485
0.000616475
7.97556e-05
1.25488e-08
5.14594e-18
3.25662e-21
1.08544e-21
7.24497e-18
1.03519e-08
9.72394e-05
0.000627872
0.000513033
6.2588e-05
4.09502e-07
1.741e-15
2.29259e-19
4.31063e-18
2.54334e-15
1.4523e-07
7.13084e-05
0.00052001
0.000440331
6.15431e-05
1.22225e-06
6.44222e-12
8.53222e-19
1.65823e-16
5.59518e-14
5.66427e-07
6.92618e-05
0.000444341
0.000387217
7.41585e-05
5.87105e-07
2.74228e-09
9.44476e-17
6.81101e-16
3.79948e-13
1.22291e-06
8.19779e-05
0.00038959
0.000346567
8.09695e-05
1.37451e-06
1.6927e-09
1.67831e-15
3.44571e-13
1.97702e-12
1.83551e-06
8.50041e-05
0.000348512
0.000314537
8.76032e-05
2.0488e-06
2.23226e-08
3.81925e-12
2.52219e-13
2.77891e-12
1.27334e-06
8.43941e-05
0.000316716
0.000288874
8.77785e-05
3.81376e-06
1.22894e-08
1.00388e-10
6.38694e-12
6.1254e-12
1.41907e-06
8.0399e-05
0.000291385
0.000267755
8.5636e-05
4.45287e-06
2.79682e-08
4.57353e-11
1.0358e-11
4.36515e-11
7.9013e-07
7.54724e-05
0.000270648
0.000250047
8.13623e-05
4.15963e-06
4.09905e-08
4.06746e-10
3.12894e-11
1.50746e-10
1.29968e-06
7.06496e-05
0.000253438
0.00023503
7.90813e-05
5.95661e-06
6.59908e-08
1.19742e-09
3.85221e-11
9.08637e-10
1.33912e-06
6.69194e-05
0.000238813
0.000222017
7.51384e-05
6.04929e-06
8.43723e-08
3.68495e-10
4.33695e-11
2.29773e-09
1.61223e-06
6.41781e-05
0.000226498
0.000210746
8.01021e-05
7.16134e-06
1.30388e-07
6.36718e-09
4.45147e-11
1.00299e-09
1.5985e-06
6.18087e-05
0.00021569
0.000200584
8.15533e-05
6.17991e-06
1.69395e-07
2.04547e-09
3.27536e-10
7.81328e-09
1.77497e-06
6.00684e-05
0.000206625
0.00019155
8.93817e-05
6.51781e-06
2.19421e-07
1.38369e-08
1.17252e-10
3.89028e-09
1.80021e-06
5.7738e-05
0.000198273
0.00018323
9.23904e-05
8.01771e-06
3.4723e-07
6.0907e-09
7.63083e-10
3.70798e-09
1.94843e-06
5.60185e-05
0.000191471
0.000175411
9.46312e-05
1.00771e-05
5.33281e-07
4.0532e-08
1.14773e-10
3.42934e-09
1.94253e-06
5.3219e-05
0.000184676
0.00016798
0.00010223
1.31861e-05
8.63417e-07
2.43839e-08
7.99467e-09
3.97531e-09
1.87845e-06
5.10392e-05
0.000179551
0.000160725
0.00010938
1.79931e-05
1.54144e-06
1.55529e-07
1.9633e-09
5.25693e-09
1.7501e-06
4.72898e-05
0.000173634
0.000153342
0.000122846
2.19319e-05
2.34189e-06
1.19663e-07
3.34096e-08
4.40532e-09
1.58075e-06
4.42229e-05
0.000169782
0.000145923
0.000137007
3.32919e-05
4.17266e-06
5.79446e-07
1.63645e-08
1.31125e-08
1.36889e-06
3.89388e-05
0.000163973
0.0001381
0.000140514
4.72241e-05
7.01821e-06
6.61921e-07
1.86405e-07
6.39134e-08
1.104e-06
3.47363e-05
0.000161018
0.000129674
0.000148654
6.58615e-05
1.19218e-05
2.318e-06
1.53179e-07
2.96411e-08
8.69403e-07
2.77089e-05
0.000153505
0.000120136
0.000154638
8.54568e-05
1.9047e-05
3.08663e-06
8.74581e-07
5.0467e-08
5.62347e-07
2.30541e-05
0.00015245
0.00010963
0.000167053
0.000109494
3.21184e-05
7.44271e-06
1.09865e-06
8.628e-08
4.90211e-07
1.49101e-05
0.000135823
9.7322e-05
0.000174882
0.00013976
4.82823e-05
1.29446e-05
3.56643e-06
1.11579e-06
4.17644e-07
1.08547e-05
0.000142936
0.00381322
2.5406e-05
2.09061e-05
2.09029e-05
2.09036e-05
2.09036e-05
2.09028e-05
2.0906e-05
2.53982e-05
0.0038217
0.00222312
1.63714e-05
1.82842e-06
1.70795e-06
1.73584e-06
1.70724e-06
1.68183e-06
1.86424e-06
1.62083e-05
0.00224524
0.00144088
0.000103286
5.32999e-09
1.02838e-08
2.95574e-09
7.71391e-09
5.11742e-08
7.39837e-10
0.000103781
0.00146016
0.00101829
0.000256516
1.92287e-12
7.70737e-15
3.68163e-15
3.42191e-15
1.48515e-11
2.84572e-12
0.00025378
0.00103735
0.000772044
0.000152236
7.14685e-10
3.2958e-20
9.66366e-20
2.30397e-22
2.68555e-22
4.81931e-10
0.000169945
0.000788073
0.000616703
9.52485e-05
3.7989e-08
4.49184e-16
3.29302e-24
4.58548e-22
8.6549e-17
6.60277e-09
7.95431e-05
0.000627516
0.000513084
6.71468e-05
8.0141e-07
1.23618e-13
3.45307e-25
3.06958e-21
4.13573e-11
9.63984e-08
7.18452e-05
0.000519543
0.000440598
6.65047e-05
1.4992e-06
2.68636e-11
9.52454e-21
4.32979e-20
6.2945e-10
7.24979e-07
7.4958e-05
0.000444351
0.000387329
7.61861e-05
8.22007e-07
4.5529e-10
7.6433e-20
4.56703e-19
4.7808e-10
6.87973e-07
8.29852e-05
0.000389872
0.000346618
8.03627e-05
2.87845e-06
4.76778e-09
3.1065e-19
1.32928e-17
1.99169e-09
3.03346e-06
8.62182e-05
0.000348693
0.000314698
8.22757e-05
1.67681e-06
6.72918e-09
5.45145e-20
4.21549e-16
1.70076e-09
5.45445e-06
8.70812e-05
0.00031679
0.000288908
8.52895e-05
3.49439e-06
4.14309e-08
1.14901e-16
1.69924e-15
7.62627e-10
3.84003e-06
8.43253e-05
0.000291457
0.000267653
8.68467e-05
1.77783e-06
2.95238e-08
1.2459e-16
1.07166e-14
4.09569e-09
2.52132e-06
8.13472e-05
0.00027071
0.000249872
8.73819e-05
3.14358e-06
1.78603e-08
5.86806e-15
7.48859e-14
1.88948e-09
1.94366e-06
7.81643e-05
0.000253431
0.000234871
8.51172e-05
3.7503e-06
4.90707e-08
1.03008e-13
1.20002e-13
2.62009e-09
1.69562e-06
7.46264e-05
0.000238751
0.000222001
8.14414e-05
3.93425e-06
6.87668e-08
2.22083e-13
5.24429e-13
2.94238e-09
1.81375e-06
7.03442e-05
0.000226414
0.000210623
8.09202e-05
4.18496e-06
1.03146e-07
8.18683e-12
1.21587e-12
4.86866e-09
2.47567e-06
6.6135e-05
0.000215664
0.000200645
8.72651e-05
4.65778e-06
1.36907e-07
3.48351e-10
4.90845e-11
4.06422e-09
2.2811e-06
6.20329e-05
0.000206649
0.000191589
9.28898e-05
5.25939e-06
1.76693e-07
4.57581e-09
8.9307e-11
1.07644e-08
2.44251e-06
5.83266e-05
0.000198368
0.000183342
9.72912e-05
6.88665e-06
2.71582e-07
1.56397e-09
2.11468e-10
1.14312e-08
2.41865e-06
5.53838e-05
0.00019159
0.000175445
0.000103166
8.3556e-06
4.31262e-07
2.2534e-08
5.28048e-10
1.21671e-08
2.26975e-06
5.22713e-05
0.000184799
0.000168222
0.000108854
1.1991e-05
7.38716e-07
2.65062e-08
1.76207e-09
7.79786e-09
2.06576e-06
4.98657e-05
0.000179661
0.000160937
0.000109468
1.5134e-05
1.16434e-06
1.02978e-07
3.51646e-09
9.49526e-09
1.8382e-06
4.64207e-05
0.000173685
0.000153673
0.000113448
2.09056e-05
2.03243e-06
1.65664e-07
1.56719e-08
7.41758e-09
1.59232e-06
4.33802e-05
0.000169807
0.000146125
0.000124512
2.6202e-05
3.43225e-06
4.09643e-07
2.53431e-08
1.56624e-08
1.36204e-06
3.85352e-05
0.000164094
0.000138134
0.000132179
3.80634e-05
5.50171e-06
6.52723e-07
9.19048e-08
1.71882e-08
1.05865e-06
3.42998e-05
0.000160345
0.00012952
0.00014167
5.76154e-05
9.69094e-06
1.48087e-06
1.55167e-07
7.04734e-08
8.40701e-07
2.74959e-05
0.000155956
0.000119844
0.000149788
8.00914e-05
1.7087e-05
2.7942e-06
5.12705e-07
6.79124e-08
5.43859e-07
2.28536e-05
0.000144115
0.000109203
0.000164075
0.000105869
3.02297e-05
6.30944e-06
1.04895e-06
1.80543e-07
3.85583e-07
1.45354e-05
0.000144216
9.68663e-05
0.000173738
0.000138396
4.77122e-05
1.26388e-05
3.2265e-06
6.94651e-07
6.84203e-07
1.13034e-05
0.000116146
0.00381353
2.54014e-05
2.09055e-05
2.09022e-05
2.09029e-05
2.09039e-05
2.09021e-05
2.09053e-05
2.53938e-05
0.00382194
0.00222463
1.62267e-05
1.91938e-06
1.69345e-06
1.70586e-06
2.18678e-06
1.74357e-06
1.85296e-06
1.614e-05
0.00224674
0.00144311
0.000102218
5.99501e-10
4.25419e-08
1.22469e-08
6.23701e-10
1.66214e-09
1.36658e-09
0.000103564
0.00146238
0.00102055
0.000255305
5.06134e-12
2.69271e-10
2.18881e-14
1.74131e-14
3.67686e-15
3.59009e-13
0.000256982
0.00103971
0.000774453
0.000163496
5.35222e-09
6.90804e-17
7.78806e-19
7.01677e-18
2.67807e-19
4.58438e-11
0.00016698
0.000790056
0.000619041
0.000129282
2.46024e-07
1.33414e-09
1.52966e-16
6.97456e-14
1.96759e-17
1.14871e-09
8.09091e-05
0.000629302
0.000516069
0.000107718
2.00584e-06
4.05335e-09
1.82866e-14
1.7999e-11
1.39896e-15
2.08747e-08
7.62467e-05
0.000521546
0.000443127
0.000107634
2.1117e-06
1.88746e-08
1.21364e-12
2.50797e-10
3.61336e-14
2.53539e-07
7.69846e-05
0.000445975
0.000389635
9.98666e-05
1.71962e-06
3.17828e-08
4.51258e-11
9.12146e-10
1.01119e-13
9.3208e-07
8.17454e-05
0.000391571
0.000348933
9.50896e-05
1.56094e-06
1.80017e-07
1.93221e-10
3.73443e-09
2.39101e-13
1.23372e-06
7.55924e-05
0.000350606
0.000316832
8.64457e-05
1.64391e-06
1.62059e-08
8.37573e-10
3.18742e-09
2.03662e-12
1.83791e-06
7.70485e-05
0.000318525
0.000290731
8.44091e-05
2.0525e-06
3.59427e-08
1.85543e-09
5.53252e-09
1.16005e-11
1.29025e-06
7.72399e-05
0.00029284
0.000269123
8.7361e-05
3.11895e-06
4.09564e-08
1.92678e-08
7.97012e-09
1.47702e-10
1.01483e-06
7.54219e-05
0.000271861
0.000251119
8.785e-05
3.32203e-06
6.6406e-08
1.04787e-08
1.83829e-08
2.75862e-10
1.3124e-06
7.20589e-05
0.000254493
0.000235899
8.96076e-05
5.07149e-06
1.12271e-07
2.8368e-08
2.05385e-08
6.55674e-10
1.58666e-06
6.91322e-05
0.000239789
0.00022283
8.56097e-05
6.25865e-06
1.48866e-07
8.76725e-09
3.24983e-08
3.92838e-09
1.3777e-06
6.625e-05
0.000227398
0.000211497
9.03366e-05
6.06864e-06
1.69312e-07
3.55797e-08
3.90565e-08
2.72237e-09
1.91207e-06
6.45592e-05
0.000216576
0.000201339
9.45757e-05
6.24498e-06
2.24649e-07
1.52536e-08
4.28399e-08
3.73154e-08
2.19212e-06
6.29008e-05
0.00020747
0.000192267
0.000100593
6.73773e-06
2.74482e-07
2.14938e-08
4.79191e-08
1.15698e-07
2.14379e-06
6.15143e-05
0.000199137
0.000183838
0.000104457
8.96749e-06
4.38292e-07
4.30044e-08
4.04505e-08
3.81844e-08
2.35548e-06
5.98017e-05
0.000192373
0.000175916
0.000104676
1.10327e-05
6.07448e-07
6.1792e-08
5.06466e-08
4.61813e-08
2.42125e-06
5.72579e-05
0.000185598
0.000168779
0.000121462
1.46813e-05
1.05235e-06
1.22379e-07
5.23629e-08
8.26789e-08
2.34631e-06
5.45832e-05
0.000180624
0.000161404
0.000119827
1.89491e-05
1.61705e-06
1.78401e-07
9.40627e-08
1.10339e-07
2.18314e-06
5.04207e-05
0.000174639
0.000154003
0.000124632
2.38347e-05
2.74134e-06
3.50178e-07
1.0382e-07
1.16764e-07
1.9542e-06
4.65664e-05
0.000171004
0.000146483
0.000136327
3.19071e-05
4.02175e-06
5.30169e-07
1.63432e-07
2.26875e-07
1.68281e-06
4.07121e-05
0.000165081
0.000138561
0.000140879
5.00861e-05
7.32359e-06
1.0813e-06
2.34645e-07
2.01198e-07
1.39043e-06
3.59477e-05
0.000162054
0.0001301
0.000147876
6.46078e-05
1.20966e-05
1.99877e-06
4.91738e-07
4.47679e-07
1.14792e-06
2.84171e-05
0.000155136
0.000120713
0.000156148
8.84115e-05
1.97474e-05
4.00538e-06
7.61515e-07
4.25385e-07
8.21281e-07
2.33057e-05
0.000152594
0.000110508
0.000167637
0.000110472
3.41324e-05
7.82695e-06
1.8619e-06
7.46066e-07
1.00973e-06
1.49368e-05
0.000140315
9.92305e-05
0.000179104
0.000145558
4.95508e-05
1.44559e-05
3.83695e-06
1.07057e-06
7.12401e-07
1.1214e-05
0.000128715
0.00381461
2.54126e-05
2.09086e-05
2.09053e-05
2.0906e-05
2.09061e-05
2.09053e-05
2.09084e-05
2.54049e-05
0.00382287
0.00223081
1.59711e-05
1.92467e-06
1.87612e-06
1.86826e-06
1.96491e-06
1.84355e-06
1.85186e-06
1.58762e-05
0.00225285
0.00145006
0.000110401
6.89214e-09
6.87302e-10
1.04631e-09
6.55938e-10
1.15965e-09
6.98258e-08
0.000109671
0.00147004
0.00102624
0.000243
1.57038e-10
5.19886e-12
1.25859e-12
3.10416e-14
5.58514e-13
2.55254e-07
0.000246065
0.0010458
0.000778297
0.000153476
1.4687e-07
7.04827e-07
1.88482e-10
9.08041e-12
1.99822e-08
4.09408e-07
0.000156142
0.00079367
0.000621552
7.90333e-05
1.69085e-06
3.37554e-07
3.99392e-09
5.09794e-10
1.30267e-06
8.16376e-07
7.69821e-05
0.000631614
0.000517348
5.99304e-05
3.09381e-06
3.73862e-07
5.72656e-08
1.14905e-08
3.77653e-07
1.45212e-06
6.61704e-05
0.000523246
0.000444613
5.51901e-05
2.64865e-06
9.39813e-07
2.9023e-07
1.66839e-07
1.88342e-06
2.23014e-06
6.41612e-05
0.000447805
0.000390975
6.04947e-05
1.45138e-06
1.30413e-06
9.63161e-07
7.69986e-07
1.14981e-06
3.08426e-06
6.77738e-05
0.000392651
0.000349824
6.97644e-05
3.09547e-06
1.92541e-06
1.42987e-06
1.56213e-06
1.54376e-06
3.06496e-06
7.22384e-05
0.000350909
0.000317418
7.6795e-05
4.95654e-06
2.72182e-06
2.3368e-06
1.79066e-06
2.08181e-06
3.88648e-06
7.61267e-05
0.00031851
0.000291455
8.18278e-05
5.61642e-06
3.17915e-06
2.31954e-06
1.45442e-06
2.06435e-06
4.11517e-06
7.98465e-05
0.00029273
0.000270099
8.5092e-05
6.49187e-06
4.65619e-06
4.11718e-06
2.82937e-06
2.42333e-06
5.56365e-06
8.23787e-05
0.000271661
0.000252168
8.71659e-05
7.384e-06
4.04115e-06
2.62859e-06
2.06144e-06
2.0889e-06
6.11733e-06
8.30096e-05
0.000254186
0.000236937
8.99032e-05
6.84738e-06
4.8349e-06
3.14886e-06
1.87383e-06
2.86511e-06
6.69035e-06
8.23897e-05
0.000239423
0.000223925
8.74161e-05
1.00998e-05
5.15782e-06
2.55745e-06
1.93506e-06
3.04556e-06
6.53474e-06
8.10661e-05
0.000227016
0.000212431
9.04946e-05
1.08912e-05
5.57384e-06
2.87584e-06
2.59451e-06
2.89395e-06
6.41454e-06
7.90685e-05
0.000216225
0.000202266
9.43677e-05
1.08629e-05
5.61294e-06
3.04004e-06
2.59279e-06
3.01143e-06
7.73389e-06
7.7105e-05
0.000207136
0.000193218
0.000102804
1.02703e-05
5.88949e-06
3.40963e-06
3.60089e-06
3.462e-06
8.31539e-06
7.44151e-05
0.00019889
0.000184763
0.000107798
1.12078e-05
4.58903e-06
3.37013e-06
3.66422e-06
3.92039e-06
8.24683e-06
7.16314e-05
0.000192094
0.000176793
0.000109587
1.32922e-05
6.2813e-06
3.68457e-06
4.01532e-06
4.47898e-06
8.85757e-06
6.79e-05
0.00018551
0.000169623
0.000127937
1.68105e-05
5.69948e-06
4.06059e-06
4.46712e-06
5.07742e-06
8.84995e-06
6.37606e-05
0.000180398
0.000162169
0.000121426
2.357e-05
6.35415e-06
4.66747e-06
5.04482e-06
5.3034e-06
9.29493e-06
5.87625e-05
0.000174816
0.00015458
0.00012762
2.67428e-05
6.22734e-06
5.37178e-06
5.14178e-06
6.34205e-06
8.77399e-06
5.3342e-05
0.000170798
0.00014681
0.000140932
3.86985e-05
9.74693e-06
6.23042e-06
6.94826e-06
6.95198e-06
1.00466e-05
4.80143e-05
0.000165486
0.000138437
0.00014561
5.50605e-05
1.19673e-05
7.9598e-06
7.6173e-06
7.57543e-06
1.06772e-05
4.13351e-05
0.000161962
0.000129297
0.000154359
7.9219e-05
2.12281e-05
1.00409e-05
9.58702e-06
9.8681e-06
8.59048e-06
3.67428e-05
0.000155576
0.000118751
0.000166593
0.00010183
2.90997e-05
1.51592e-05
9.87868e-06
9.47907e-06
1.44693e-05
3.10019e-05
0.000151643
0.000107374
0.000182187
0.000140558
4.98915e-05
2.34135e-05
1.01371e-05
1.1265e-05
1.19476e-05
2.49769e-05
0.000142647
9.83097e-05
0.000202052
0.000175647
9.36782e-05
3.59128e-05
1.91711e-05
1.29727e-05
1.27974e-05
2.54684e-05
0.000131944
0.0038177
3.06478e-05
2.5406e-05
2.5395e-05
2.53993e-05
2.53993e-05
2.53949e-05
2.5406e-05
3.06388e-05
0.00382547
0.0022563
3.34051e-05
1.60049e-05
1.61715e-05
1.61857e-05
1.62148e-05
1.61798e-05
1.58974e-05
3.29794e-05
0.00227787
0.00147982
0.000243374
0.000106959
0.000103742
0.000104779
0.000104604
0.000103569
0.000108124
0.00023077
0.00150741
0.00105144
0.000531575
0.000262569
0.000251734
0.000256328
0.000257566
0.000258287
0.000227347
0.000523295
0.00108683
0.000796819
0.000540562
0.000173992
0.000169269
0.000189851
0.000178959
0.000170915
0.000130849
0.000558081
0.000828948
0.000633995
0.000489666
8.91157e-05
8.80224e-05
9.88994e-05
9.34822e-05
9.08265e-05
8.43341e-05
0.000480612
0.000657605