/*--------------------------------*- C++ -*----------------------------------*\
| =========                 |                                                 |
| \\      /  F ield         | OpenFOAM: The Open Source CFD Toolbox           |
|  \\    /   O peration     | Version:  4.1                                   |
|   \\  /    A nd           | Web:      www.OpenFOAM.org                      |
|    \\/     M anipulation  |                                                 |
\*---------------------------------------------------------------------------*/
FoamFile
{
    version     2.0;
    format      ascii;
    class       volScalarField;
    location    "1100";
    object      p;
}
// * * * * * * * * * * * * * * * * * * * * * * * * * * * * * * * * * * * * * //

dimensions      [0 2 -2 0 0 0 0];

internalField   nonuniform List<scalar> 
12000
(
0.0761471
0.0764238
0.0760883
0.0759676
0.0759299
0.0759283
0.0759629
0.0760808
0.0764139
0.0761361
0.0755769
0.0755607
0.0754972
0.0754995
0.0754858
0.0754841
0.0754945
0.0754894
0.0755505
0.0755652
0.0754564
0.07522
0.0752806
0.0753287
0.0753304
0.0753284
0.075323
0.0752717
0.0752083
0.0754426
0.0754249
0.0751608
0.0752444
0.0752722
0.075272
0.0752697
0.0752654
0.0752338
0.0751469
0.075408
0.0753262
0.0751063
0.075192
0.0751948
0.075192
0.0751892
0.0751866
0.0751789
0.0750892
0.0753052
0.0752025
0.0750274
0.07511
0.0750995
0.0750989
0.0750955
0.075089
0.0750935
0.075006
0.075176
0.0751007
0.0749589
0.075034
0.0750157
0.075018
0.0750137
0.0750022
0.0750129
0.0749318
0.075067
0.0750256
0.0749096
0.0749754
0.0749509
0.0749543
0.0749487
0.0749333
0.0749481
0.0748746
0.0749824
0.0749668
0.0748711
0.0749277
0.0748989
0.074902
0.0748946
0.0748762
0.0748928
0.0748258
0.0749112
0.0749183
0.0748383
0.0748859
0.0748542
0.0748559
0.0748464
0.0748251
0.0748409
0.0747796
0.0748466
0.0748789
0.0748103
0.0748487
0.074815
0.0748142
0.0748019
0.0747773
0.0747905
0.0747341
0.0747864
0.0748488
0.0747877
0.0748177
0.074781
0.0747762
0.0747603
0.0747318
0.0747408
0.0746877
0.074729
0.0748275
0.0747709
0.0747929
0.0747519
0.0747415
0.0747207
0.0746876
0.074691
0.0746391
0.074672
0.0748152
0.07476
0.0747726
0.0747267
0.0747092
0.0746821
0.0746432
0.0746398
0.0745877
0.0746131
0.0748127
0.0747563
0.0747581
0.0747057
0.0746791
0.0746438
0.0745974
0.0745857
0.0745316
0.0745501
0.0748215
0.0747618
0.074751
0.0746895
0.0746512
0.0746051
0.074549
0.0745269
0.0744689
0.0744804
0.0748439
0.0747786
0.0747524
0.0746787
0.0746252
0.0745652
0.0744963
0.0744612
0.0743968
0.0744011
0.0748823
0.0748091
0.074764
0.0746737
0.074601
0.0745229
0.0744372
0.0743858
0.0743119
0.074308
0.0749391
0.0748564
0.0747872
0.0746754
0.0745783
0.0744769
0.0743695
0.0742972
0.0742095
0.074196
0.0750166
0.0749235
0.0748241
0.0746846
0.0745569
0.0744257
0.0742897
0.0741905
0.0740833
0.0740581
0.0751157
0.0750135
0.0748767
0.0747022
0.0745365
0.0743674
0.0741937
0.074059
0.0739248
0.0738844
0.0752348
0.0751275
0.0749471
0.0747297
0.0745174
0.0742999
0.0740767
0.0738942
0.0737221
0.0736609
0.0753672
0.0752627
0.0750365
0.0747688
0.0745
0.0742213
0.0739325
0.0736846
0.0734576
0.0733666
0.0754998
0.0754088
0.075145
0.0748222
0.0744863
0.0741301
0.0737537
0.0734137
0.0731053
0.0729685
0.0756134
0.0755468
0.0752706
0.0748954
0.0744804
0.0740257
0.0735313
0.0730588
0.0726234
0.0724108
0.0756895
0.0756541
0.0754106
0.0749975
0.0744902
0.0739091
0.0732537
0.0725857
0.0719426
0.0715929
0.0757269
0.0757214
0.0755598
0.0751354
0.0745251
0.0737844
0.072909
0.0719473
0.0709458
0.0703025
0.0757547
0.0757935
0.0757196
0.0753
0.0745852
0.07365
0.0724735
0.0710607
0.0694278
0.0680731
0.0757633
0.0758338
0.0757964
0.0754043
0.0746276
0.0734972
0.0719425
0.069831
0.0670968
0.0634765
0.075722
0.0757681
0.0756698
0.0752681
0.0744863
0.0731853
0.071177
0.0679112
0.0635556
0.0528016
0.0764252
0.076447
0.0761195
0.0760016
0.0759617
0.0759601
0.0759969
0.0761118
0.0764365
0.076414
0.075562
0.0755066
0.0754724
0.0754799
0.0754648
0.0754631
0.075475
0.0754646
0.0754962
0.0755501
0.0752215
0.0749994
0.0750847
0.0751405
0.0751414
0.0751395
0.075135
0.0750761
0.0749878
0.0752076
0.0751627
0.0749032
0.0750045
0.0750325
0.0750306
0.0750283
0.0750259
0.0749943
0.0748894
0.0751456
0.0751088
0.0748874
0.0749915
0.0749871
0.0749828
0.0749801
0.074979
0.074979
0.0748705
0.0750872
0.0750307
0.0748497
0.0749525
0.0749319
0.0749322
0.0749288
0.0749216
0.0749367
0.0748284
0.0750033
0.0749631
0.0748123
0.0749061
0.0748767
0.0748825
0.0748782
0.0748635
0.0748858
0.0747849
0.0749284
0.0749148
0.074789
0.0748707
0.0748343
0.0748425
0.074837
0.0748173
0.0748443
0.0747538
0.0748704
0.0748777
0.0747733
0.0748431
0.074802
0.0748101
0.0748031
0.0747799
0.0748086
0.0747277
0.0748206
0.0748468
0.0747582
0.074817
0.0747736
0.0747803
0.0747713
0.0747447
0.0747718
0.074699
0.0747729
0.0748212
0.0747437
0.074792
0.0747474
0.0747512
0.0747395
0.0747095
0.0747324
0.0746663
0.0747258
0.0748018
0.0747317
0.0747695
0.0747235
0.074723
0.0747076
0.074674
0.0746917
0.0746307
0.074678
0.074789
0.074724
0.0747504
0.0747025
0.0746961
0.0746758
0.0746382
0.0746497
0.0745917
0.0746279
0.0747829
0.0747207
0.0747363
0.0746846
0.0746703
0.0746437
0.0746009
0.0746048
0.0745479
0.0745746
0.0747849
0.0747231
0.0747273
0.0746698
0.0746455
0.0746107
0.0745609
0.0745556
0.0744974
0.0745162
0.0747973
0.074733
0.0747241
0.0746584
0.0746216
0.0745761
0.0745171
0.0745004
0.0744385
0.0744503
0.074822
0.0747525
0.0747281
0.0746509
0.0745984
0.074539
0.0744678
0.0744373
0.0743688
0.0743733
0.0748613
0.0747842
0.0747406
0.0746479
0.0745757
0.0744983
0.0744109
0.0743632
0.074285
0.0742813
0.0749172
0.0748307
0.0747632
0.0746499
0.074553
0.0744526
0.0743437
0.0742743
0.0741823
0.0741689
0.0749918
0.0748947
0.0747976
0.0746576
0.0745299
0.0743998
0.0742628
0.0741655
0.0740541
0.0740287
0.0750859
0.0749785
0.0748453
0.0746715
0.0745058
0.0743379
0.0741636
0.0740299
0.0738912
0.0738504
0.0751986
0.0750834
0.0749076
0.0746923
0.0744801
0.0742638
0.0740405
0.0738582
0.0736809
0.073619
0.0753252
0.0752078
0.0749855
0.074721
0.0744525
0.0741748
0.0738862
0.0736374
0.0734042
0.0733118
0.075456
0.0753462
0.0750799
0.0747596
0.0744238
0.074068
0.0736914
0.0733491
0.0730321
0.0728931
0.0755754
0.0754864
0.0751905
0.0748118
0.0743967
0.0739416
0.0734454
0.0729675
0.0725188
0.0723018
0.0756663
0.0756102
0.0753161
0.0748842
0.0743766
0.0737953
0.073135
0.0724552
0.0717881
0.0714285
0.0757193
0.0756993
0.0754509
0.0749827
0.0743717
0.0736323
0.0727465
0.0717605
0.0707099
0.0700399
0.0757416
0.0757582
0.0755824
0.0750992
0.0743821
0.0734517
0.0722577
0.0708001
0.0690628
0.0676308
0.0757263
0.075762
0.0756377
0.075171
0.0743836
0.0732525
0.0716646
0.0694722
0.0665298
0.0626611
0.0756912
0.0756642
0.07547
0.0750165
0.0742272
0.0729307
0.0708965
0.0674828
0.0628445
0.0512985
0.0760909
0.0761208
0.0758158
0.0756931
0.0756517
0.0756501
0.0756884
0.0758081
0.07611
0.07608
0.0754998
0.0754736
0.0754449
0.075447
0.0754318
0.0754301
0.0754421
0.0754371
0.0754632
0.075488
0.0752835
0.0750862
0.0751715
0.0752253
0.0752267
0.0752248
0.0752198
0.0751629
0.0750747
0.0752696
0.075248
0.0750064
0.0751062
0.0751326
0.0751304
0.0751281
0.0751261
0.075096
0.0749926
0.0752308
0.0751965
0.0749938
0.075099
0.0750924
0.0750874
0.0750846
0.0750842
0.0750865
0.074977
0.075175
0.0751157
0.0749553
0.0750629
0.0750406
0.0750415
0.075038
0.0750303
0.0750472
0.0749342
0.0750886
0.0750412
0.0749096
0.07501
0.0749794
0.0749872
0.0749829
0.0749663
0.0749898
0.0748826
0.075007
0.0749845
0.0748751
0.0749631
0.0749255
0.0749364
0.074931
0.0749084
0.0749368
0.0748401
0.0749411
0.0749392
0.0748489
0.0749244
0.0748815
0.0748926
0.0748857
0.0748592
0.0748896
0.0748029
0.0748841
0.0749008
0.0748246
0.0748885
0.0748429
0.0748527
0.0748438
0.0748136
0.0748427
0.0747645
0.0748295
0.0748681
0.0748018
0.0748545
0.0748073
0.0748145
0.0748027
0.074769
0.0747945
0.0747234
0.0747755
0.0748431
0.0747821
0.0748229
0.0747748
0.0747778
0.0747625
0.0747253
0.0747457
0.0746804
0.0747218
0.0748258
0.0747667
0.0747953
0.0747462
0.0747433
0.0747232
0.0746821
0.0746961
0.074635
0.0746672
0.0748152
0.0747571
0.0747744
0.0747219
0.0747109
0.0746847
0.0746387
0.0746447
0.0745857
0.0746098
0.0748126
0.0747541
0.0747597
0.0747016
0.0746804
0.074646
0.0745935
0.0745898
0.0745304
0.0745472
0.0748204
0.0747589
0.0747513
0.0746851
0.0746512
0.0746062
0.074545
0.0745298
0.0744675
0.0744768
0.0748406
0.0747734
0.0747502
0.0746727
0.0746229
0.0745642
0.0744913
0.0744621
0.0743941
0.0743956
0.074875
0.0747996
0.0747575
0.0746645
0.0745952
0.0745187
0.0744301
0.0743837
0.0743066
0.0742997
0.0749255
0.0748397
0.0747743
0.0746611
0.0745673
0.074468
0.0743584
0.0742905
0.0741999
0.0741833
0.0749937
0.0748959
0.0748019
0.0746625
0.0745384
0.0744099
0.0742726
0.074177
0.0740672
0.0740387
0.0750797
0.0749701
0.0748413
0.0746689
0.0745074
0.0743416
0.0741678
0.0740361
0.073899
0.073855
0.0751821
0.075063
0.0748934
0.0746804
0.0744731
0.0742598
0.0740375
0.0738579
0.0736818
0.0736166
0.0752965
0.0751732
0.0749584
0.0746971
0.0744343
0.0741606
0.0738737
0.0736283
0.0733957
0.0732997
0.0754152
0.075296
0.075036
0.0747195
0.0743906
0.0740402
0.0736662
0.0733278
0.0730102
0.0728668
0.075527
0.0754223
0.0751251
0.0747497
0.0743432
0.0738956
0.073403
0.0729293
0.0724775
0.0722539
0.07562
0.0755393
0.0752238
0.0747913
0.074296
0.0737261
0.0730708
0.0723941
0.0717179
0.0713469
0.0756851
0.0756345
0.0753293
0.0748503
0.0742584
0.0735381
0.0726597
0.0716732
0.0705991
0.0699051
0.0757217
0.0757003
0.0754337
0.0749308
0.0742453
0.0733475
0.072165
0.0706996
0.0689033
0.0674139
0.0757357
0.0757317
0.0755167
0.0750377
0.0742981
0.0732174
0.0716487
0.0694402
0.066368
0.0623368
0.0757423
0.0757204
0.0755435
0.0751636
0.0744655
0.0732335
0.071222
0.0677804
0.062921
0.050921
0.0759716
0.0760042
0.0756945
0.0755707
0.0755289
0.0755273
0.075566
0.0756867
0.0759934
0.0759608
0.0755034
0.0754826
0.0754484
0.0754507
0.0754354
0.0754337
0.0754457
0.0754406
0.0754722
0.0754917
0.0753332
0.0751435
0.0752268
0.0752829
0.0752843
0.0752825
0.0752774
0.0752182
0.075132
0.0753193
0.0752778
0.0750361
0.0751344
0.0751629
0.0751604
0.0751582
0.0751564
0.0751243
0.0750225
0.0752606
0.0752018
0.0749916
0.0750946
0.0750884
0.0750827
0.07508
0.0750804
0.0750822
0.0749749
0.0751801
0.0751083
0.0749376
0.0750434
0.0750205
0.0750208
0.0750175
0.0750103
0.0750278
0.0749166
0.075081
0.0750269
0.0748839
0.074983
0.0749512
0.0749588
0.0749546
0.0749381
0.0749629
0.074857
0.0749922
0.0749652
0.0748437
0.0749302
0.0748907
0.0749017
0.0748963
0.0748736
0.074904
0.0748088
0.074921
0.0749174
0.0748142
0.0748878
0.0748426
0.0748539
0.0748469
0.0748204
0.0748534
0.0747688
0.0748605
0.074878
0.0747897
0.0748512
0.0748032
0.0748131
0.0748042
0.0747742
0.0748062
0.0747305
0.0748044
0.0748462
0.0747682
0.0748181
0.0747688
0.0747761
0.0747645
0.0747311
0.0747595
0.0746912
0.0747506
0.0748221
0.0747507
0.0747889
0.0747387
0.0747416
0.0747265
0.0746896
0.0747128
0.0746502
0.074698
0.0748053
0.0747379
0.0747648
0.074713
0.0747097
0.07469
0.0746492
0.0746656
0.0746069
0.0746449
0.0747957
0.0747308
0.0747464
0.0746916
0.0746803
0.0746544
0.0746087
0.0746169
0.0745595
0.0745887
0.0747944
0.0747301
0.0747339
0.0746742
0.0746526
0.0746186
0.0745665
0.0745648
0.0745065
0.074527
0.0748034
0.0747369
0.0747273
0.0746603
0.0746259
0.0745815
0.0745207
0.0745071
0.0744455
0.0744575
0.0748242
0.0747529
0.0747276
0.0746499
0.0745999
0.0745418
0.0744692
0.0744414
0.0743737
0.0743772
0.0748586
0.0747798
0.0747355
0.0746432
0.0745737
0.074498
0.0744098
0.0743644
0.0742873
0.0742817
0.0749082
0.0748197
0.0747521
0.0746402
0.0745465
0.0744482
0.0743392
0.074272
0.0741812
0.0741652
0.0749742
0.0748744
0.0747782
0.0746409
0.0745173
0.0743901
0.0742536
0.0741586
0.0740481
0.0740196
0.0750568
0.0749456
0.0748148
0.0746451
0.0744847
0.0743205
0.0741477
0.0740167
0.0738785
0.0738339
0.0751544
0.0750338
0.0748623
0.0746525
0.0744471
0.0742358
0.0740149
0.0738359
0.0736584
0.073592
0.0752633
0.075138
0.074921
0.0746631
0.074403
0.0741319
0.0738468
0.073602
0.0733675
0.0732696
0.0753771
0.0752545
0.074991
0.0746772
0.0743519
0.0740049
0.0736331
0.0732954
0.0729749
0.0728285
0.0754875
0.0753764
0.0750718
0.0746971
0.0742954
0.0738525
0.0733628
0.0728893
0.0724328
0.0722045
0.0755854
0.0754941
0.0751637
0.0747286
0.0742398
0.0736768
0.0730252
0.0723478
0.0716632
0.0712839
0.075664
0.0755985
0.0752675
0.0747835
0.074202
0.0734925
0.0726193
0.0716303
0.0705406
0.0698308
0.0757223
0.0756835
0.0753843
0.0748808
0.0742145
0.0733337
0.0721587
0.0706886
0.0688648
0.0673448
0.0757656
0.0757477
0.0755173
0.0750595
0.0743535
0.0732973
0.0717395
0.0695276
0.066419
0.0623454
0.0757974
0.075785
0.0756653
0.0753588
0.0747086
0.0734987
0.071497
0.0680595
0.063175
0.0511911
0.0759354
0.0759658
0.0756546
0.0755304
0.0754885
0.0754869
0.0755257
0.0756468
0.075955
0.0759245
0.0754914
0.075469
0.0754348
0.075437
0.0754217
0.07542
0.0754321
0.075427
0.0754586
0.0754797
0.0753368
0.0751462
0.07523
0.0752861
0.0752875
0.0752856
0.0752806
0.0752214
0.0751347
0.0753228
0.0752797
0.0750364
0.0751343
0.0751626
0.0751598
0.0751576
0.0751561
0.0751242
0.0750228
0.0752624
0.0752017
0.07499
0.0750923
0.0750854
0.0750793
0.0750766
0.0750774
0.0750799
0.0749733
0.0751799
0.0751113
0.0749414
0.0750477
0.0750243
0.0750243
0.0750209
0.0750141
0.0750322
0.0749204
0.0750836
0.0750338
0.0748943
0.0749953
0.0749634
0.0749711
0.0749668
0.0749503
0.0749752
0.0748674
0.0749987
0.0749744
0.0748578
0.0749471
0.0749077
0.074919
0.0749136
0.0748906
0.0749208
0.0748231
0.0749299
0.0749278
0.0748301
0.0749067
0.0748617
0.0748736
0.0748667
0.0748394
0.0748723
0.0747848
0.0748708
0.0748896
0.0748064
0.074871
0.0748233
0.0748341
0.0748252
0.0747944
0.0748262
0.0747475
0.074816
0.0748584
0.0747851
0.0748383
0.0747893
0.0747977
0.0747861
0.0747517
0.0747801
0.0747086
0.0747627
0.074834
0.0747672
0.0748089
0.0747588
0.0747629
0.0747478
0.0747098
0.0747328
0.0746671
0.0747109
0.0748163
0.0747536
0.074784
0.074732
0.07473
0.0747103
0.0746682
0.0746843
0.0746225
0.0746585
0.074806
0.0747452
0.0747641
0.0747091
0.074699
0.0746732
0.0746262
0.0746342
0.074574
0.0746018
0.0748041
0.0747428
0.0747496
0.0746897
0.0746695
0.0746357
0.0745823
0.0745806
0.0745197
0.0745391
0.074812
0.0747479
0.0747409
0.0746737
0.074641
0.0745968
0.0745347
0.0745214
0.0744574
0.0744685
0.0748315
0.0747618
0.0747389
0.0746612
0.0746128
0.074555
0.0744814
0.0744539
0.0743842
0.0743869
0.0748641
0.0747865
0.0747444
0.0746521
0.0745843
0.074509
0.0744199
0.0743751
0.0742963
0.07429
0.0749114
0.0748237
0.0747582
0.0746466
0.0745546
0.0744569
0.0743472
0.0742807
0.0741885
0.0741719
0.0749747
0.0748753
0.0747814
0.0746444
0.0745226
0.074396
0.0742591
0.074165
0.0740535
0.0740246
0.075054
0.074943
0.0748144
0.0746452
0.0744867
0.0743234
0.0741504
0.0740205
0.0738817
0.0738368
0.0751481
0.0750273
0.0748578
0.0746488
0.0744452
0.0742351
0.0740143
0.0738366
0.0736588
0.0735922
0.0752538
0.0751275
0.074912
0.0746549
0.0743968
0.074127
0.0738423
0.073599
0.0733644
0.0732664
0.0753654
0.0752408
0.0749772
0.0746641
0.0743408
0.0739954
0.0736243
0.0732881
0.0729678
0.0728213
0.0754759
0.0753613
0.0750539
0.0746791
0.0742795
0.0738387
0.07335
0.0728779
0.0724214
0.0721927
0.0755772
0.0754812
0.0751435
0.074707
0.0742208
0.0736608
0.0730106
0.0723342
0.0716488
0.0712683
0.0756626
0.0755919
0.0752493
0.0747626
0.0741854
0.0734805
0.0726094
0.0716209
0.0705288
0.0698163
0.0757298
0.0756863
0.075375
0.0748708
0.0742125
0.0733394
0.0721681
0.0706983
0.0688699
0.0673449
0.0757809
0.0757599
0.0755278
0.0750797
0.0743891
0.0733459
0.0717963
0.069587
0.0664749
0.0623889
0.0758181
0.0758072
0.0757144
0.0754413
0.0748179
0.0736282
0.071642
0.0682145
0.0633318
0.0513148
0.0759353
0.0759657
0.0756545
0.0755304
0.0754885
0.0754869
0.0755256
0.0756467
0.0759549
0.0759244
0.0754913
0.075469
0.0754347
0.0754369
0.0754216
0.0754199
0.075432
0.0754269
0.0754585
0.0754796
0.0753367
0.0751461
0.0752299
0.0752861
0.0752874
0.0752856
0.0752806
0.0752213
0.0751347
0.0753227
0.0752797
0.0750363
0.0751343
0.0751625
0.0751598
0.0751575
0.075156
0.0751242
0.0750227
0.0752624
0.0752018
0.07499
0.0750923
0.0750854
0.0750793
0.0750766
0.0750774
0.0750799
0.0749733
0.0751799
0.0751113
0.0749414
0.0750477
0.0750243
0.0750243
0.0750209
0.0750141
0.0750321
0.0749204
0.0750837
0.0750338
0.0748943
0.0749953
0.0749634
0.074971
0.0749668
0.0749503
0.0749752
0.0748674
0.0749988
0.0749745
0.0748578
0.0749471
0.0749077
0.074919
0.0749137
0.0748906
0.0749209
0.0748231
0.0749297
0.0749281
0.07483
0.0749066
0.0748616
0.0748736
0.0748667
0.0748394
0.0748724
0.0747849
0.0748705
0.0748898
0.0748063
0.074871
0.0748233
0.0748341
0.0748252
0.0747944
0.0748263
0.0747476
0.0748157
0.0748582
0.0747851
0.0748384
0.0747893
0.0747977
0.0747861
0.0747517
0.0747799
0.0747085
0.0747629
0.0748336
0.0747672
0.074809
0.0747588
0.0747629
0.0747478
0.0747097
0.0747327
0.0746669
0.0747112
0.074816
0.0747536
0.0747841
0.074732
0.0747299
0.0747102
0.0746681
0.0746844
0.0746225
0.0746583
0.0748057
0.0747451
0.0747641
0.074709
0.0746989
0.0746731
0.0746261
0.0746343
0.0745741
0.0746015
0.0748039
0.0747427
0.0747495
0.0746896
0.0746694
0.0746356
0.0745822
0.0745806
0.0745197
0.0745389
0.0748118
0.0747477
0.0747408
0.0746735
0.0746408
0.0745966
0.0745346
0.0745212
0.0744573
0.0744684
0.0748312
0.0747616
0.0747386
0.0746609
0.0746125
0.0745548
0.0744812
0.0744536
0.074384
0.0743868
0.0748638
0.0747862
0.074744
0.0746517
0.0745839
0.0745087
0.0744197
0.0743747
0.074296
0.0742898
0.0749111
0.0748232
0.0747577
0.074646
0.0745542
0.0744565
0.0743469
0.0742803
0.074188
0.0741716
0.0749742
0.0748747
0.0747807
0.0746437
0.074522
0.0743955
0.0742587
0.0741645
0.074053
0.0740242
0.0750534
0.0749421
0.0748135
0.0746444
0.074486
0.0743227
0.0741499
0.0740199
0.073881
0.0738362
0.0751474
0.0750261
0.0748567
0.0746479
0.0744444
0.0742342
0.0740136
0.0738358
0.0736579
0.0735915
0.0752529
0.0751262
0.0749106
0.0746537
0.0743957
0.0741259
0.0738413
0.073598
0.0733634
0.0732655
0.0753643
0.0752393
0.0749757
0.0746627
0.0743395
0.0739941
0.0736231
0.0732868
0.0729664
0.0728201
0.0754745
0.0753599
0.0750524
0.0746776
0.074278
0.0738371
0.0733484
0.0728763
0.0724197
0.0721911
0.0755758
0.0754798
0.0751421
0.0747054
0.0742192
0.073659
0.0730087
0.0723322
0.0716468
0.0712664
0.0756615
0.0755908
0.0752482
0.0747612
0.0741837
0.0734786
0.0726073
0.0716186
0.0705264
0.0698139
0.0757291
0.0756857
0.0753744
0.0748697
0.0742108
0.0733373
0.0721657
0.0706956
0.0688672
0.0673423
0.0757807
0.0757599
0.075528
0.0750793
0.0743878
0.0733439
0.0717939
0.0695844
0.0664725
0.0623879
0.0758184
0.0758079
0.0757155
0.0754418
0.0748172
0.0736267
0.0716402
0.0682132
0.0633319
0.0513206
0.0759715
0.076004
0.0756942
0.0755705
0.0755287
0.0755271
0.0755657
0.0756865
0.0759931
0.0759605
0.0755032
0.0754824
0.0754482
0.0754505
0.0754352
0.0754335
0.0754455
0.0754403
0.0754719
0.0754915
0.075333
0.0751433
0.0752267
0.0752827
0.0752842
0.0752823
0.0752772
0.0752181
0.0751318
0.0753191
0.0752777
0.075036
0.0751343
0.0751629
0.0751603
0.0751581
0.0751563
0.0751242
0.0750223
0.0752604
0.0752018
0.0749915
0.0750945
0.0750884
0.0750827
0.07508
0.0750803
0.0750821
0.0749748
0.07518
0.0751084
0.0749376
0.0750434
0.0750205
0.0750208
0.0750175
0.0750103
0.0750277
0.0749165
0.0750809
0.075027
0.074884
0.074983
0.0749512
0.0749589
0.0749546
0.0749381
0.0749629
0.074857
0.0749921
0.0749652
0.0748437
0.0749302
0.0748907
0.0749017
0.0748963
0.0748736
0.074904
0.0748088
0.0749208
0.0749175
0.0748141
0.0748876
0.0748426
0.0748539
0.074847
0.0748204
0.0748534
0.0747688
0.0748601
0.0748783
0.0747894
0.0748509
0.0748032
0.0748131
0.0748042
0.0747742
0.0748063
0.0747305
0.074804
0.0748461
0.074768
0.074818
0.0747689
0.0747761
0.0747645
0.074731
0.0747595
0.0746912
0.0747504
0.0748213
0.0747505
0.0747891
0.0747388
0.0747416
0.0747265
0.0746895
0.0747127
0.0746503
0.0746978
0.0748041
0.0747378
0.074765
0.074713
0.0747096
0.0746899
0.0746491
0.0746655
0.074607
0.0746447
0.0747946
0.0747306
0.0747465
0.0746916
0.0746801
0.0746542
0.0746085
0.0746166
0.0745596
0.0745886
0.0747936
0.0747297
0.0747336
0.0746739
0.0746523
0.0746183
0.0745661
0.0745642
0.0745064
0.0745271
0.0748027
0.0747364
0.0747268
0.0746598
0.0746255
0.0745811
0.0745201
0.0745063
0.0744452
0.0744576
0.0748235
0.0747521
0.0747266
0.0746491
0.0745992
0.0745412
0.0744686
0.0744404
0.0743732
0.0743771
0.0748577
0.0747788
0.0747341
0.074642
0.0745728
0.0744972
0.074409
0.0743633
0.0742866
0.0742813
0.074907
0.0748182
0.0747503
0.0746387
0.0745453
0.0744472
0.0743383
0.0742708
0.0741801
0.0741643
0.0749724
0.0748724
0.0747761
0.074639
0.0745158
0.0743886
0.0742523
0.0741572
0.0740468
0.0740184
0.0750543
0.0749429
0.0748121
0.0746428
0.0744827
0.0743186
0.074146
0.0740149
0.0738768
0.0738323
0.0751512
0.0750305
0.0748591
0.0746497
0.0744446
0.0742333
0.0740126
0.0738335
0.0736562
0.0735899
0.0752594
0.0751339
0.0749172
0.0746597
0.0743999
0.0741288
0.0738438
0.073599
0.0733646
0.0732669
0.0753725
0.0752497
0.0749865
0.0746731
0.0743481
0.074001
0.0736293
0.0732915
0.0729712
0.072825
0.0754825
0.075371
0.0750669
0.0746925
0.0742909
0.0738478
0.0733581
0.0728844
0.072428
0.0721999
0.0755804
0.0754886
0.0751585
0.0747236
0.0742346
0.0736712
0.0730195
0.0723417
0.0716572
0.071278
0.0756596
0.0755936
0.0752626
0.0747784
0.0741964
0.0734862
0.0726125
0.071623
0.0705331
0.0698235
0.0757191
0.07568
0.0753802
0.0748762
0.074209
0.0733271
0.0721511
0.0706801
0.0688561
0.0673364
0.0757642
0.0757463
0.0755151
0.0750562
0.0743487
0.0732905
0.0717311
0.0695177
0.0664094
0.0623397
0.0757977
0.075786
0.075666
0.0753575
0.0747047
0.073492
0.0714876
0.0680485
0.0631648
0.0511998
0.0760906
0.0761202
0.0758152
0.0756925
0.0756511
0.0756495
0.0756877
0.0758074
0.0761093
0.0760795
0.0754995
0.0754732
0.0754445
0.0754466
0.0754314
0.0754297
0.0754416
0.0754367
0.0754628
0.0754876
0.0752833
0.0750859
0.0751712
0.075225
0.0752264
0.0752245
0.0752195
0.0751625
0.0750744
0.0752693
0.0752478
0.0750061
0.075106
0.0751324
0.0751302
0.075128
0.0751259
0.0750958
0.0749924
0.0752305
0.0751964
0.0749937
0.075099
0.0750923
0.0750873
0.0750846
0.0750842
0.0750864
0.0749769
0.0751748
0.0751157
0.0749553
0.075063
0.0750407
0.0750415
0.0750381
0.0750303
0.0750471
0.0749341
0.0750886
0.0750413
0.0749098
0.0750102
0.0749795
0.0749872
0.0749829
0.0749662
0.0749898
0.0748826
0.0750069
0.0749845
0.0748754
0.0749633
0.0749256
0.0749365
0.074931
0.0749084
0.0749368
0.07484
0.0749409
0.0749397
0.0748489
0.0749242
0.0748815
0.0748927
0.0748857
0.0748592
0.0748896
0.0748029
0.0748836
0.0749015
0.0748244
0.074888
0.0748428
0.0748528
0.0748438
0.0748137
0.0748429
0.0747648
0.0748289
0.074869
0.0748014
0.0748537
0.0748071
0.0748144
0.0748027
0.0747691
0.0747947
0.0747238
0.0747749
0.0748431
0.0747818
0.0748226
0.0747746
0.0747775
0.0747622
0.0747252
0.0747457
0.0746807
0.0747215
0.0748245
0.0747667
0.0747961
0.0747459
0.0747428
0.0747227
0.074682
0.074696
0.0746353
0.074667
0.0748135
0.074757
0.0747752
0.0747215
0.0747104
0.0746841
0.0746385
0.0746445
0.0745858
0.0746095
0.0748113
0.0747538
0.0747601
0.074701
0.0746797
0.0746453
0.0745932
0.0745894
0.0745304
0.0745469
0.0748194
0.0747584
0.0747512
0.0746841
0.0746503
0.0746054
0.0745445
0.0745289
0.0744672
0.0744766
0.0748396
0.0747725
0.0747494
0.0746712
0.0746217
0.0745631
0.0744905
0.0744609
0.0743934
0.0743953
0.0748737
0.0747982
0.074756
0.0746626
0.0745936
0.0745173
0.074429
0.0743821
0.0743054
0.074299
0.0749236
0.0748376
0.0747722
0.0746586
0.0745653
0.0744662
0.074357
0.0742885
0.0741982
0.0741821
0.0749907
0.0748931
0.0747991
0.0746595
0.0745359
0.0744075
0.0742707
0.0741746
0.074065
0.0740369
0.0750757
0.0749662
0.0748376
0.0746651
0.0745042
0.0743385
0.0741651
0.0740331
0.0738961
0.0738526
0.0751769
0.0750579
0.0748886
0.0746757
0.074469
0.0742558
0.074034
0.073854
0.0736781
0.0736134
0.0752902
0.0751668
0.0749524
0.0746913
0.0744291
0.0741556
0.073869
0.0736233
0.0733908
0.0732954
0.0754076
0.0752883
0.0750289
0.0747127
0.0743842
0.0740339
0.0736601
0.0733214
0.0730039
0.0728611
0.0755185
0.0754134
0.075117
0.0747417
0.0743354
0.0738878
0.0733953
0.0729211
0.0724693
0.0722463
0.0756112
0.07553
0.0752151
0.0747823
0.0742867
0.0737166
0.0730612
0.0723838
0.0717074
0.0713369
0.0756768
0.0756256
0.0753204
0.0748408
0.0742479
0.0735268
0.072648
0.0716605
0.0705857
0.0698919
0.075715
0.0756927
0.0754253
0.0749215
0.0742346
0.0733352
0.0721515
0.0706844
0.0688869
0.0673973
0.0757313
0.0757268
0.0755104
0.0750302
0.0742889
0.0732056
0.0716344
0.069423
0.0663492
0.0623182
0.0757401
0.0757184
0.0755414
0.0751605
0.0744603
0.0732252
0.0712097
0.0677642
0.0629034
0.0509066
0.0764247
0.076446
0.0761184
0.0760004
0.0759605
0.0759589
0.0759956
0.0761105
0.0764351
0.0764133
0.0755617
0.075506
0.0754718
0.0754794
0.0754643
0.0754626
0.0754744
0.075464
0.0754955
0.0755497
0.0752213
0.074999
0.0750844
0.0751401
0.0751411
0.0751392
0.0751346
0.0750757
0.0749873
0.0752073
0.0751627
0.0749028
0.0750042
0.0750323
0.0750304
0.0750282
0.0750257
0.0749941
0.0748891
0.0751453
0.0751088
0.0748871
0.0749914
0.074987
0.0749827
0.07498
0.0749789
0.0749789
0.0748702
0.0750871
0.0750305
0.0748495
0.0749526
0.074932
0.0749323
0.0749289
0.0749217
0.0749366
0.0748281
0.0750033
0.0749629
0.0748123
0.0749064
0.0748768
0.0748826
0.0748783
0.0748635
0.0748859
0.0747848
0.0749282
0.0749148
0.0747891
0.074871
0.0748345
0.0748426
0.0748372
0.0748173
0.0748444
0.0747536
0.0748701
0.0748784
0.0747733
0.0748431
0.0748021
0.0748102
0.0748033
0.0747798
0.0748086
0.0747275
0.0748203
0.0748475
0.0747584
0.0748169
0.0747737
0.0747805
0.0747715
0.0747447
0.0747718
0.0746989
0.0747723
0.0748215
0.0747439
0.0747918
0.0747473
0.0747513
0.0747396
0.0747094
0.0747324
0.0746663
0.0747251
0.0748013
0.0747319
0.0747693
0.0747234
0.074723
0.0747077
0.0746739
0.0746917
0.0746306
0.0746773
0.0747877
0.0747237
0.0747504
0.0747022
0.0746959
0.0746757
0.0746379
0.0746495
0.0745916
0.0746273
0.0747813
0.07472
0.0747361
0.0746841
0.0746699
0.0746434
0.0746004
0.0746045
0.0745477
0.074574
0.0747835
0.0747222
0.0747267
0.074669
0.0746449
0.0746102
0.0745603
0.074555
0.074497
0.0745156
0.074796
0.0747319
0.0747232
0.0746572
0.0746206
0.0745752
0.0745162
0.0744995
0.0744378
0.0744496
0.0748206
0.0747512
0.0747267
0.0746492
0.0745969
0.0745377
0.0744665
0.0744359
0.0743678
0.0743724
0.0748593
0.0747823
0.0747386
0.0746456
0.0745737
0.0744965
0.0744092
0.0743615
0.0742835
0.0742799
0.0749144
0.074828
0.0747605
0.0746469
0.0745504
0.0744502
0.0743416
0.0742721
0.0741802
0.0741669
0.0749878
0.0748909
0.0747939
0.0746537
0.0745265
0.0743967
0.07426
0.0741626
0.0740513
0.0740261
0.0750805
0.0749733
0.0748404
0.0746666
0.0745014
0.0743337
0.07416
0.0740261
0.0738876
0.073847
0.0751916
0.0750765
0.0749012
0.0746861
0.0744745
0.0742586
0.0740357
0.0738532
0.0736761
0.0736145
0.0753166
0.0751992
0.0749775
0.0747133
0.0744454
0.0741681
0.0738799
0.0736309
0.0733979
0.0733058
0.0754457
0.0753359
0.0750702
0.0747501
0.0744148
0.0740594
0.0736833
0.0733406
0.0730238
0.0728851
0.0755641
0.0754747
0.0751792
0.0748006
0.0743856
0.0739306
0.0734349
0.0729566
0.0725078
0.0722912
0.0756548
0.0755979
0.0753036
0.0748712
0.0743631
0.0737815
0.0731214
0.0724411
0.0717736
0.0714143
0.0757087
0.0756875
0.0754377
0.074968
0.0743557
0.0736154
0.0727294
0.0717424
0.0706907
0.0700204
0.0757331
0.0757476
0.075569
0.0750833
0.0743644
0.0734323
0.0722368
0.0707773
0.0690379
0.0676042
0.0757202
0.0757545
0.0756271
0.0751569
0.074367
0.0732329
0.0716414
0.0694449
0.0664981
0.0626224
0.075686
0.0756584
0.0754645
0.0750102
0.0742188
0.0729184
0.0708783
0.0674565
0.0628104
0.051246
0.0761476
0.0764247
0.0760896
0.075969
0.0759313
0.0759296
0.0759642
0.0760819
0.0764146
0.0761377
0.0755774
0.0755612
0.0754979
0.0755002
0.0754866
0.0754849
0.0754952
0.07549
0.075551
0.0755663
0.0754567
0.0752204
0.075281
0.0753291
0.0753308
0.0753288
0.0753234
0.0752721
0.0752088
0.0754433
0.0754251
0.0751612
0.0752446
0.0752724
0.0752721
0.0752698
0.0752656
0.0752339
0.0751472
0.0754085
0.0753262
0.0751065
0.0751918
0.0751947
0.0751917
0.0751889
0.0751863
0.0751788
0.0750893
0.0753053
0.0752023
0.0750272
0.0751096
0.0750991
0.0750984
0.0750949
0.0750886
0.0750933
0.075006
0.0751759
0.0751004
0.0749586
0.0750336
0.0750153
0.0750174
0.075013
0.0750018
0.0750125
0.0749314
0.0750665
0.0750256
0.0749094
0.074975
0.0749503
0.0749536
0.074948
0.0749331
0.0749477
0.0748742
0.0749818
0.0749672
0.0748714
0.0749277
0.0748983
0.0749011
0.0748938
0.074876
0.0748926
0.0748255
0.0749105
0.0749187
0.0748386
0.0748862
0.0748536
0.074855
0.0748455
0.0748247
0.0748407
0.0747791
0.0748457
0.074879
0.0748102
0.0748493
0.0748144
0.0748135
0.0748011
0.0747768
0.0747901
0.0747333
0.0747854
0.0748483
0.074787
0.0748178
0.0747806
0.074776
0.07476
0.0747315
0.0747403
0.0746868
0.074728
0.0748265
0.0747695
0.0747919
0.0747514
0.0747414
0.0747207
0.0746872
0.0746904
0.0746383
0.0746711
0.0748139
0.0747583
0.0747712
0.074726
0.0747089
0.0746819
0.0746425
0.074639
0.0745868
0.0746121
0.0748111
0.0747546
0.0747565
0.0747048
0.0746784
0.0746431
0.0745963
0.0745847
0.0745306
0.074549
0.0748199
0.07476
0.0747492
0.0746883
0.07465
0.0746039
0.0745474
0.0745256
0.0744677
0.0744793
0.0748419
0.0747766
0.0747505
0.0746771
0.0746235
0.0745633
0.0744942
0.0744594
0.0743952
0.0743996
0.0748797
0.0748066
0.0747616
0.0746716
0.0745987
0.0745204
0.0744346
0.0743836
0.0743098
0.074306
0.0749355
0.0748529
0.074784
0.0746725
0.0745752
0.0744738
0.0743661
0.0742943
0.0742068
0.0741934
0.0750115
0.0749187
0.0748197
0.0746807
0.0745529
0.0744217
0.0742854
0.0741868
0.0740799
0.0740547
0.075109
0.075007
0.0748709
0.0746971
0.0745315
0.0743623
0.0741885
0.0740543
0.0739204
0.07388
0.0752261
0.0751191
0.0749395
0.0747231
0.0745109
0.0742935
0.0740701
0.0738882
0.0737164
0.0736552
0.0753567
0.0752522
0.0750269
0.0747603
0.0744919
0.0742132
0.0739242
0.0736767
0.0734502
0.0733591
0.0754878
0.0753966
0.0751334
0.0748117
0.0744762
0.0741199
0.0737432
0.0734035
0.0730955
0.0729586
0.0756008
0.0755334
0.0752572
0.0748825
0.0744678
0.0740127
0.0735178