/*--------------------------------*- C++ -*----------------------------------*\
| =========                 |                                                 |
| \\      /  F ield         | OpenFOAM: The Open Source CFD Toolbox           |
|  \\    /   O peration     | Version:  4.1                                   |
|   \\  /    A nd           | Web:      www.OpenFOAM.org                      |
|    \\/     M anipulation  |                                                 |
\*---------------------------------------------------------------------------*/
FoamFile
{
    version     2.0;
    format      ascii;
    class       surfaceScalarField;
    location    "1100";
    object      phi;
}
// * * * * * * * * * * * * * * * * * * * * * * * * * * * * * * * * * * * * * //

dimensions      [0 3 -1 0 0 0 0];

internalField   nonuniform List<scalar> 
33700
(
4.93208e-05
0.000901433
4.92446e-05
2.30209e-05
0.000971702
5.45966e-05
8.3616e-06
0.000957932
5.67271e-05
3.11792e-06
0.000948771
5.6473e-05
9.0201e-08
0.000946331
5.66969e-05
-2.94376e-06
0.000946338
5.66961e-05
-8.20108e-06
0.000948786
5.64715e-05
-2.28731e-05
0.000957938
5.67335e-05
-4.92308e-05
0.000971685
5.46725e-05
0.000901515
4.92539e-05
3.15657e-05
0.00083846
3.14057e-05
2.39584e-05
0.000939483
3.9826e-05
1.34865e-05
0.00092648
4.19253e-05
6.1626e-06
0.000914897
4.12006e-05
2.41149e-07
0.000910696
4.15605e-05
-5.69693e-06
0.000910718
4.15612e-05
-1.30602e-05
0.000914952
4.1198e-05
-2.35748e-05
0.000926534
4.19183e-05
-3.13075e-05
0.000939534
3.98823e-05
0.000838833
3.13738e-05
1.64055e-05
0.000805905
1.61474e-05
1.71159e-05
0.000914869
2.39053e-05
1.18909e-05
0.000906585
2.5124e-05
6.13226e-06
0.000896155
2.45064e-05
4.08774e-07
0.00089146
2.49647e-05
-5.34499e-06
0.000891514
2.49623e-05
-1.11818e-05
0.000896295
2.4496e-05
-1.65178e-05
0.000906755
2.5115e-05
-1.60098e-05
0.000915035
2.39897e-05
0.00080667
1.61519e-05
9.09109e-06
0.000788102
8.71335e-06
1.23302e-05
0.000896965
1.46688e-05
9.78972e-06
0.000894638
1.4495e-05
5.34748e-06
0.00088595
1.46568e-05
6.11099e-07
0.000880961
1.52454e-05
-4.1739e-06
0.000881065
1.52411e-05
-8.72994e-06
0.00088622
1.46362e-05
-1.1451e-05
0.000895002
1.44768e-05
-8.47029e-06
0.000897302
1.47521e-05
0.000789442
8.75774e-06
5.75397e-06
0.000777129
5.22261e-06
9.5407e-06
0.000883523
9.66199e-06
8.54977e-06
0.000887867
7.77265e-06
4.88194e-06
0.000880695
8.93515e-06
8.67086e-07
0.000875392
9.59522e-06
-3.22606e-06
0.000875581
9.58713e-06
-7.05356e-06
0.000881152
8.90397e-06
-8.30913e-06
0.00088853
7.73203e-06
-4.82511e-06
0.000884101
9.7196e-06
0.000779312
5.30577e-06
4.54598e-06
0.000768778
3.81225e-06
7.59111e-06
0.000873089
7.39936e-06
7.65114e-06
0.00088396
3.85895e-06
4.61522e-06
0.000877895
5.84982e-06
1.18556e-06
0.000872441
6.39369e-06
-2.34092e-06
0.000872742
6.37838e-06
-5.61028e-06
0.00087861
5.82022e-06
-5.89741e-06
0.000885044
3.7799e-06
-3.21816e-06
0.000873993
7.43294e-06
0.000772154
3.94202e-06
4.3661e-06
0.000761053
3.36843e-06
6.21887e-06
0.00086467
6.57833e-06
6.98838e-06
0.00088145
1.75521e-06
4.46273e-06
0.000876023
4.41201e-06
1.58431e-06
0.000870636
4.6985e-06
-1.3631e-06
0.000871024
4.67867e-06
-4.22334e-06
0.000877094
4.38917e-06
-3.95009e-06
0.00088314
1.64071e-06
-2.5402e-06
0.000865999
6.59099e-06
0.000766072
3.54497e-06
4.57781e-06
0.00075325
3.23791e-06
5.30247e-06
0.000857734
6.22569e-06
6.66706e-06
0.000879572
5.28125e-07
4.51215e-06
0.000874423
3.7691e-06
2.10508e-06
0.000869296
3.76158e-06
-3.34347e-07
0.000869748
3.7308e-06
-2.94125e-06
0.00087597
3.74557e-06
-2.30961e-06
0.000882124
3.96501e-07
-2.13426e-06
0.000859602
6.23136e-06
0.000760496
3.44624e-06
4.98174e-06
0.000745088
3.19591e-06
4.67023e-06
0.00085212
5.9415e-06
6.65916e-06
0.000877911
-3.13314e-07
4.82159e-06
0.000872829
3.44596e-06
2.813e-06
0.000868139
3.18064e-06
7.3052e-07
0.000868711
3.13528e-06
-1.71578e-06
0.000875003
3.42939e-06
-7.03517e-07
0.000881579
-4.53283e-07
-1.751e-06
0.000854684
5.9766e-06
0.000755336
3.41518e-06
5.49321e-06
0.00073649
3.1202e-06
4.47438e-06
0.000847511
5.64309e-06
6.95257e-06
0.00087627
-8.2313e-07
5.42148e-06
0.000871103
3.27118e-06
3.75947e-06
0.00086703
2.78485e-06
1.90156e-06
0.000867863
2.72224e-06
-4.56026e-07
0.00087411
3.26772e-06
8.07198e-07
0.000881321
-9.89735e-07
-1.25338e-06
0.000851027
5.73102e-06
0.000750724
3.36508e-06
6.05177e-06
0.000727558
2.89575e-06
4.89905e-06
0.000843261
5.4161e-06
7.62512e-06
0.000874522
-9.64745e-07
6.35969e-06
0.000869186
3.19548e-06
4.99112e-06
0.000865913
2.5003e-06
3.27669e-06
0.000867182
2.41236e-06
9.1677e-07
0.000873283
3.20379e-06
2.0972e-06
0.000881335
-1.17922e-06
-5.35543e-07
0.000848137
5.53636e-06
0.000746972
3.22387e-06
6.80688e-06
0.000718153
2.61147e-06
5.81623e-06
0.000839003
5.2624e-06
8.75301e-06
0.000872548
-9.50301e-07
7.7002e-06
0.000867091
3.16102e-06
6.58425e-06
0.000864762
2.28113e-06
4.96512e-06
0.000866656
2.16097e-06
2.49826e-06
0.000872579
3.18728e-06
3.42116e-06
0.00088164
-1.21303e-06
3.08157e-07
0.000845858
5.40533e-06
0.000744192
3.09526e-06
7.92475e-06
0.000707873
2.36825e-06
7.16711e-06
0.000834684
5.08778e-06
1.04049e-05
0.000870246
-9.23583e-07
9.55458e-06
0.000864838
3.11499e-06
8.65788e-06
0.000863565
2.107e-06
7.09234e-06
0.000866283
1.95297e-06
4.40938e-06
0.000872102
3.17549e-06
5.01991e-06
0.000882292
-1.24814e-06
1.21346e-06
0.00084443
5.24633e-06
0.000742335
3.07593e-06
9.47491e-06
0.000696256
2.15243e-06
9.08304e-06
0.000830205
4.88161e-06
1.26938e-05
0.000867502
-8.56559e-07
1.20817e-05
0.000862411
3.04993e-06
1.13622e-05
0.000862313
1.98391e-06
9.80416e-06
0.000866066
1.78854e-06
6.79849e-06
0.000871952
3.16938e-06
6.97531e-06
0.000883388
-1.2614e-06
2.28448e-06
0.000844074
5.05686e-06
0.000741522
3.10331e-06
1.15702e-05
0.000682714
1.97986e-06
1.17521e-05
0.000825354
4.67729e-06
1.57927e-05
0.000864208
-7.38112e-07
1.54668e-05
0.000859761
2.9854e-06
1.4887e-05
0.000860982
1.92154e-06
1.32729e-05
0.000866017
1.6754e-06
9.8331e-06
0.000872225
3.17787e-06
9.38334e-06
0.000885062
-1.21332e-06
3.6112e-06
0.000844966
4.88848e-06
0.000741999
3.13804e-06
1.43501e-05
0.000666489
1.87924e-06
1.54034e-05
0.000819794
4.51169e-06
1.99432e-05
0.000860218
-5.43462e-07
1.99595e-05
0.000856798
2.95395e-06
1.94828e-05
0.000859529
1.93794e-06
1.77271e-05
0.000866154
1.62841e-06
1.37213e-05
0.000873027
3.2135e-06
1.23888e-05
0.000887486
-1.08403e-06
5.28503e-06
0.000847311
4.76486e-06
0.000744069
3.21758e-06
1.7991e-05
0.000646595
1.90408e-06
2.0323e-05
0.000813016
4.44799e-06
2.54661e-05
0.000855309
-2.30348e-07
2.58829e-05
0.000853394
2.99234e-06
2.54719e-05
0.000857886
2.06046e-06
2.34699e-05
0.000866489
1.67336e-06
1.87327e-05
0.00087447
3.29964e-06
1.61983e-05
0.000890892
-8.66909e-07
7.4278e-06
0.00085138
4.70448e-06
0.000748093
3.40391e-06
2.26897e-05
0.000621769
2.13368e-06
2.6884e-05
0.000804258
4.56303e-06
3.27782e-05
0.000849137
2.7783e-07
3.36514e-05
0.000849372
3.14972e-06
3.32674e-05
0.000855944
2.32764e-06
3.08944e-05
0.000867019
1.84572e-06
2.52108e-05
0.000876683
3.47351e-06
2.10944e-05
0.000895541
-5.31463e-07
1.01931e-05
0.000857535
4.74607e-06
0.00075454
3.74482e-06
2.86554e-05
0.000590413
2.69168e-06
3.55674e-05
0.000792365
4.97581e-06
4.23777e-05
0.000841269
1.05389e-06
4.37843e-05
0.000844479
3.48436e-06
4.33944e-05
0.000853539
2.79375e-06
4.05069e-05
0.000867702
2.20448e-06
3.35926e-05
0.000879803
3.79413e-06
2.74683e-05
0.00090165
1.43106e-08
1.37908e-05
0.000866258
4.9519e-06
0.000764026
4.30146e-06
3.60682e-05
0.00055057
3.76128e-06
4.69507e-05
0.000775626
5.84574e-06
5.48981e-05
0.000831126
2.18757e-06
5.6917e-05
0.00083836
4.09412e-06
5.65095e-05
0.000850409
3.53214e-06
5.29635e-05
0.000868417
2.82575e-06
4.44823e-05
0.000883948
4.33142e-06
3.5816e-05
0.00090947
8.41526e-07
1.85008e-05
0.000878169
5.39853e-06
0.000777361
5.1601e-06
4.49799e-05
0.000499977
5.59203e-06
6.16145e-05
0.000751561
7.41585e-06
7.11174e-05
0.000817779
3.83214e-06
7.38529e-05
0.000830498
5.11467e-06
7.34525e-05
0.000846143
4.65602e-06
6.91405e-05
0.000868896
3.82386e-06
5.8726e-05
0.000889164
5.18961e-06
4.6796e-05
0.000919378
2.0139e-06
2.47215e-05
0.000894052
6.18354e-06
0.000795635
6.44075e-06
5.51547e-05
0.000436377
8.41683e-06
8.00294e-05
0.000716703
9.96328e-06
9.19035e-05
0.000799653
6.23448e-06
9.557e-05
0.000820077
6.73863e-06
9.52844e-05
0.000840092
6.32209e-06
9.01746e-05
0.000868633
5.35945e-06
7.74625e-05
0.000895352
6.51223e-06
6.13671e-05
0.000931799
3.66367e-06
3.30307e-05
0.000914915
7.46241e-06
0.00082034
8.31652e-06
6.58517e-05
0.000358151
1.23371e-05
0.000102192
0.000666604
1.37343e-05
0.000118067
0.000774061
9.69609e-06
0.000123191
0.000805704
9.22957e-06
0.000123321
0.000831197
8.7454e-06
0.000117581
0.000866693
7.66276e-06
0.000102295
0.000902087
8.53374e-06
8.09716e-05
0.000947111
5.99732e-06
4.43332e-05
0.000942076
9.46325e-06
0.000853624
1.10386e-05
7.55089e-05
0.000265461
1.71362e-05
0.000126948
0.000596385
1.87523e-05
0.000149955
0.000736479
1.45506e-05
0.000157929
0.000784743
1.29614e-05
0.00015919
0.000817689
1.22234e-05
0.000153383
0.000861468
1.101e-05
0.000135551
0.000908339
1.156e-05
0.000107812
0.000965499
9.33345e-06
6.00507e-05
0.000977295
1.25247e-05
0.000898692
1.49682e-05
8.13008e-05
0.000162247
2.18584e-05
0.000150967
0.000502133
2.4556e-05
0.000186653
0.000679717
2.10497e-05
0.000200842
0.000752011
1.8515e-05
0.000204923
0.000796359
1.72206e-05
0.00020029
0.00085027
1.58024e-05
0.000180597
0.000912008
1.59991e-05
0.000145453
0.000986533
1.40866e-05
8.27544e-05
0.00102284
1.7134e-05
0.00096076
2.06663e-05
7.81031e-05
6.02482e-05
2.38294e-05
0.000167587
0.000383016
2.96013e-05
0.000224727
0.000593153
2.9397e-05
0.000252215
0.000697602
2.6891e-05
0.000263015
0.00076097
2.45582e-05
0.000262103
0.000828596
2.25534e-05
0.00024248
0.000909267
2.23318e-05
0.000199677
0.00100851
2.07904e-05
0.000116705
0.00108181
2.39599e-05
0.00104855
2.88833e-05
5.6337e-05
-1.80046e-05
2.18316e-05
0.000166541
0.000241117
3.16584e-05
0.000256701
0.000464093
3.88706e-05
0.000309383
0.00060578
3.91097e-05
0.000335189
0.000699451
3.56764e-05
0.000343471
0.000788042
3.22319e-05
0.000328561
0.000892917
3.1213e-05
0.000280451
0.00102645
3.01267e-05
0.000172599
0.00115559
3.40134e-05
0.00118002
4.10788e-05
8.50657e-06
-5.49479e-05
2.83362e-05
0.000138225
7.27489e-05
3.85904e-05
0.000270791
0.000279861
5.16273e-05
0.00036549
0.000455376
5.56684e-05
0.000422225
0.000590964
5.17101e-05
0.00045102
0.000713205
4.5993e-05
0.000450293
0.000850247
4.33445e-05
0.000403893
0.00103023
4.25542e-05
0.000267929
0.00124324
4.82552e-05
0.00138922
5.8698e-05
-2.18868e-06
-8.50986e-05
3.22292e-05
9.92076e-05
-7.87589e-05
5.00235e-05
0.000248714
5.92467e-05
7.10411e-05
0.00039089
0.000232574
8.05668e-05
0.000504739
0.000400836
7.62177e-05
0.000582773
0.000568452
6.66549e-05
0.000623277
0.000749189
6.04849e-05
0.000595075
0.000999405
5.89665e-05
0.000475209
0.00129487
6.81745e-05
0.00177909
8.52848e-05
7.68425e-05
8.53315e-06
-0.000170556
0.000175734
2.65463e-05
-0.000204288
0.000281416
6.15297e-05
-0.00010808
0.000404985
8.95993e-05
1.9257e-05
0.000555709
9.83933e-05
0.000151582
0.000708585
9.21608e-05
0.000323301
0.000847998
8.19501e-05
0.000527747
0.000901015
7.72783e-05
0.000869059
0.000889493
8.63385e-05
0.00122004
0.000120423
0.00254818
5.46617e-05
0.000971636
2.29474e-05
2.03085e-05
0.0010687
2.0252e-05
6.26882e-06
0.00104967
2.11017e-05
2.19461e-06
0.00103924
2.13064e-05
6.80105e-08
0.00103739
2.14337e-05
-2.06258e-06
0.00103739
2.14334e-05
-6.13985e-06
0.00103924
2.13052e-05
-2.01561e-05
0.00104965
2.11041e-05
-5.45155e-05
0.00106873
2.03037e-05
0.000971797
2.29411e-05
3.99716e-05
0.0009393
2.37713e-05
2.22938e-05
0.00110409
2.2117e-05
1.27696e-05
0.00107842
2.26919e-05
5.82884e-06
0.00106438
2.30053e-05
2.46744e-07
0.00106132
2.32174e-05
-5.34544e-06
0.00106133
2.32191e-05
-1.2314e-05
0.0010644
2.30073e-05
-2.18566e-05
0.00107841
2.26932e-05
-3.9524e-05
0.00110412
2.21572e-05
0.000939919
2.3728e-05
2.41418e-05
0.000914499
1.68082e-05
1.70568e-05
0.00111832
1.67572e-05
1.14414e-05
0.00109282
1.63402e-05
5.75237e-06
0.0010782
1.63734e-05
4.21498e-07
0.00107505
1.656e-05
-4.93419e-06
0.00107509
1.65605e-05
-1.07046e-05
0.0010783
1.63702e-05
-1.6418e-05
0.0010929
1.63412e-05
-2.36413e-05
0.00111854
1.67924e-05
0.000915643
1.67869e-05
1.50164e-05
0.000896318
1.18783e-05
1.43422e-05
0.00111976
1.3905e-05
9.56815e-06
0.00109921
1.28812e-05
4.76185e-06
0.00108491
1.27475e-05
6.0266e-07
0.00108149
1.29681e-05
-3.59123e-06
0.00108155
1.29662e-05
-8.52241e-06
0.00108513
1.2733e-05
-1.34275e-05
0.00109941
1.28778e-05
-1.43143e-05
0.00112027
1.39129e-05
0.000898187
1.18994e-05
1.01533e-05
0.00088248
8.90742e-06
1.31332e-05
0.00111391
1.25257e-05
8.65228e-06
0.00110034
1.1122e-05
4.33041e-06
0.00108708
1.10857e-05
8.26178e-07
0.00108321
1.13757e-05
-2.72203e-06
0.0010833
1.13827e-05
-7.22298e-06
0.00108748
1.10613e-05
-1.19008e-05
0.00110071
1.11075e-05
-9.18872e-06
0.00111477
1.2505e-05
0.000885333
8.97142e-06
8.07591e-06
0.000871493
6.72271e-06
1.22086e-05
0.00110579
1.13853e-05
7.93911e-06
0.00109897
9.50046e-06
4.21793e-06
0.00108698
9.66739e-06
1.10863e-06
0.00108277
9.93848e-06
-2.06166e-06
0.0010829
9.95467e-06
-6.01286e-06
0.00108761
9.63645e-06
-1.05751e-05
0.00109962
9.43403e-06
-6.79532e-06
0.00110708
1.13439e-05
0.000875663
6.81628e-06
7.49399e-06
0.00086232
5.04578e-06
1.15557e-05
0.00109786
1.04521e-05
7.33287e-06
0.00109691
8.03187e-06
4.2167e-06
0.00108606
8.45492e-06
1.47677e-06
0.00108162
8.5904e-06
-1.36206e-06
0.00108185
8.56602e-06
-4.76462e-06
0.00108698
8.42414e-06
-9.38457e-06
0.00109792
7.9615e-06
-5.80764e-06
0.0010997
1.03939e-05
0.000868249
5.15249e-06
7.45077e-06
0.000854375
3.73011e-06
1.13162e-05
0.00109037
9.84501e-06
7.04759e-06
0.00109478
6.92329e-06
4.39959e-06
0.00108482
7.6482e-06
1.95935e-06
0.00108025
7.57102e-06
-6.46221e-07
0.00108069
7.48914e-06
-3.66737e-06
0.00108613
7.61941e-06
-8.43318e-06
0.00109617
6.90572e-06
-5.23174e-06
0.00109295
9.7762e-06
0.000862634
3.82969e-06
7.56976e-06
0.000847433
2.56592e-06
1.16578e-05
0.00108252
9.69768e-06
7.21039e-06
0.00109278
6.13575e-06
4.83956e-06
0.00108354
7.09643e-06
2.57592e-06
0.00107893
6.75607e-06
8.89939e-08
0.00107964
6.67371e-06
-2.76697e-06
0.00108533
7.07976e-06
-7.84561e-06
0.00109471
6.08976e-06
-4.65525e-06
0.00108611
9.62489e-06
0.000858749
2.64589e-06
7.80107e-06
0.000841087
1.66322e-06
1.21292e-05
0.0010743
9.53403e-06
7.75026e-06
0.00109085
5.48091e-06
5.52878e-06
0.00108238
6.65803e-06
3.36436e-06
0.00107783
6.05465e-06
9.40342e-07
0.00107878
6.00817e-06
-1.89742e-06
0.00108476
6.67325e-06
-7.16274e-06
0.00109364
5.34641e-06
-3.99212e-06
0.00107917
9.50065e-06
0.000856406
1.71861e-06
8.26512e-06
0.000834556
1.16111e-06
1.23059e-05
0.00106678
8.89509e-06
8.51856e-06
0.00108883
4.84985e-06
6.4596e-06
0.00108133
6.30802e-06
4.39096e-06
0.00107694
5.46329e-06
2.01962e-06
0.00107812
5.44068e-06
-8.36371e-07
0.00108448
6.34254e-06
-5.85184e-06
0.00109284
4.62991e-06
-3.29968e-06
0.00107326
8.89829e-06
0.000855134
1.19727e-06
9.01049e-06
0.000827305
8.51904e-07
1.26794e-05
0.00106017
8.20715e-06
9.5765e-06
0.00108668
4.30063e-06
7.70806e-06
0.00108031
6.05259e-06
5.73811e-06
0.00107621
4.98377e-06
3.40192e-06
0.00107766
4.96579e-06
4.8842e-07
0.00108449
6.09526e-06
-4.25771e-06
0.00109236
4.01247e-06
-2.57644e-06
0.00106878
8.21222e-06
0.000854765
8.90387e-07
1.00024e-05
0.000819099
5.71282e-07
1.36225e-05
0.00105388
7.76037e-06
1.10967e-05
0.00108439
3.89497e-06
9.39134e-06
0.00107925
5.88166e-06
7.50106e-06
0.0010756
4.61036e-06
5.15781e-06
0.00107738
4.57295e-06
2.08449e-06
0.0010848
5.93462e-06
-2.64262e-06
0.00109231
3.53088e-06
-1.68509e-06
0.00106529
7.77292e-06
0.000855522
6.35377e-07
1.13004e-05
0.000809619
3.31478e-07
1.51084e-05
0.00104752
7.43033e-06
1.31939e-05
0.00108184
3.61708e-06
1.16308e-05
0.0010781
5.77334e-06
9.80433e-06
0.00107508
4.33559e-06
7.40091e-06
0.00107733
4.24565e-06
4.07797e-06
0.00108546
5.83166e-06
-7.81935e-07
0.00109277
3.14259e-06
-5.88691e-07
0.00106273
7.43355e-06
0.000857576
4.61617e-07
1.30193e-05
0.000798401
1.77248e-07
1.72075e-05
0.00104085
7.15732e-06
1.59967e-05
0.00107887
3.44369e-06
1.45886e-05
0.00107678
5.71249e-06
1.28125e-05
0.00107462
4.15358e-06
1.02928e-05
0.00107754
3.9831e-06
6.63092e-06
0.00108654
5.75879e-06
1.50229e-06
0.00109386
2.82105e-06
6.99525e-07
0.0010613
7.11459e-06
0.000860981
4.32147e-07
1.52958e-05
0.000784831
1.506e-07
2.00832e-05
0.00103363
6.9438e-06
1.96872e-05
0.00107534
3.38046e-06
1.84718e-05
0.00107525
5.70281e-06
1.67349e-05
0.00107423
4.07163e-06
1.40359e-05
0.00107808
3.79774e-06
9.91735e-06
0.00108816
5.71829e-06
4.35843e-06
0.00109576
2.57872e-06
2.26018e-06
0.00106135
6.81002e-06
0.000865906
5.51906e-07
1.83015e-05
0.000768141
2.87505e-07
2.3997e-05
0.00102554
6.84214e-06
2.45172e-05
0.00107113
3.46092e-06
2.35486e-05
0.00107343
5.77355e-06
2.18367e-05
0.00107389
4.10928e-06
1.88831e-05
0.00107899
3.70752e-06
1.41609e-05
0.00109045
5.72486e-06
7.95179e-06
0.00109865
2.44436e-06
4.21756e-06
0.00106324
6.55065e-06
0.000872721
8.0485e-07
2.22217e-05
0.000747396
6.51008e-07
2.92659e-05
0.00101614
6.90927e-06
3.0805e-05
0.00106613
3.7269e-06
3.0161e-05
0.00107126
5.96572e-06
2.84601e-05
0.00107362
4.2986e-06
2.51603e-05
0.00108039
3.74221e-06
1.96526e-05
0.00109363
5.80562e-06
1.25037e-05
0.00110283
2.43629e-06
6.70859e-06
0.00106741
6.37087e-06
0.000881965
1.2056e-06
2.72527e-05
0.000721498
1.32952e-06
3.62912e-05
0.00100483
7.24695e-06
3.89843e-05
0.00106023
4.26223e-06
3.87471e-05
0.00106864
6.33642e-06
3.70444e-05
0.00107342
4.68801e-06
3.32967e-05
0.00108239
3.94821e-06
2.67949e-05
0.00109791
6.00489e-06
1.82933e-05
0.00110875
2.58984e-06
9.89326e-06
0.00107443
6.31848e-06
0.000894364
1.79043e-06
3.35686e-05
0.000689216
2.4645e-06
4.55574e-05
0.000990664
8.01466e-06
4.95969e-05
0.00105319
5.17832e-06
4.98613e-05
0.00106547
6.99277e-06
4.81518e-05
0.0010733
5.35265e-06
4.38477e-05
0.00108513
4.3879e-06
3.61026e-05
0.00110361
6.37027e-06
2.5729e-05
0.00111702
2.93929e-06
1.40174e-05
0.00108508
6.45949e-06
0.000910913
2.62314e-06
4.13036e-05
0.000649191
4.30003e-06
5.76325e-05
0.000972288
9.45231e-06
6.3294e-05
0.00104474
6.60732e-06
6.41843e-05
0.00106163
8.0512e-06
6.25035e-05
0.00107323
6.40628e-06
5.75489e-05
0.00108873
5.16494e-06
4.82646e-05
0.00111107
7.00323e-06
3.53961e-05
0.00112831
3.58735e-06
1.94101e-05
0.00110035
6.88431e-06
0.000932956
3.79949e-06
5.04753e-05
0.000599899
7.21613e-06
7.29905e-05
0.000947894
1.18293e-05
8.08245e-05
0.00103439
8.74638e-06
8.25448e-05
0.00105697
9.67227e-06
8.10167e-05
0.00107306
8.00873e-06
7.53875e-05
0.00109327
6.44289e-06
6.42562e-05
0.00112066
8.04322e-06
4.81334e-05
0.00114342
4.66328e-06
2.65855e-05
0.00112163
7.72085e-06
0.000962384
5.46549e-06
6.08216e-05
0.000539759
1.16331e-05
9.19103e-05
0.000915041
1.5482e-05
0.000103
0.00102109
1.18837e-05
0.000105946
0.00105113
1.21069e-05
0.000104862
0.00107249
1.03785e-05
9.87046e-05
0.00109864
8.43484e-06
8.549e-05
0.00113271
9.68717e-06
6.51875e-05
0.00116336
6.34504e-06
3.63166e-05
0.00115078
9.16422e-06
0.00100189
7.83332e-06
7.16231e-05
0.00046755
1.76949e-05
0.0001143
0.000870258
2.08399e-05
0.000130627
0.00100279
1.65124e-05
0.000135603
0.00104334
1.57545e-05
0.000135546
0.00107091
1.38416e-05
0.000129316
0.00110444
1.14194e-05
0.000113996
0.00114739
1.21831e-05
8.85028e-05
0.00118928
8.88781e-06
4.9856e-05
0.00119047
1.14734e-05
0.00105549
1.12166e-05
8.14656e-05
0.000383109
2.48043e-05
0.000139136
0.000809038
2.80867e-05
0.000164101
0.000975665
2.31898e-05
0.000172907
0.00103183
2.1203e-05
0.000175031
0.00106713
1.88636e-05
0.000169776
0.00110965
1.58314e-05
0.000152851
0.00116439
1.59063e-05
0.000121259
0.00122231
1.26267e-05
6.94638e-05
0.00124434
1.50312e-05
0.00112954
1.60582e-05
8.75861e-05
0.00028792
3.14014e-05
0.000163143
0.000726567
3.64977e-05
0.000202672
0.000933229
3.22898e-05
0.000219342
0.00101276
2.92767e-05
0.000225945
0.00105894
2.61278e-05
0.000223707
0.00111222
2.22009e-05
0.000206744
0.00118235
2.13092e-05
0.000168762
0.00126306
1.79976e-05
9.89613e-05
0.00131772
2.03416e-05
0.00123441
2.29465e-05
8.56578e-05
0.000189527
3.4534e-05
0.00018091
0.000619193
4.37645e-05
0.000243556
0.000865767
4.36756e-05
0.000275582
0.000978893
4.09437e-05
0.000291353
0.00104231
3.65221e-05
0.000296036
0.00110865
3.11099e-05
0.000282818
0.00119797
2.8794e-05
0.000240345
0.00131025
2.53845e-05
0.000148144
0.00141593
2.79625e-05
0.0013909
3.26871e-05
6.91044e-05
0.000114271
3.44539e-05
0.000186039
0.000491134
4.97006e-05
0.000281877
0.00076439
5.71594e-05
0.000340909
0.000919194
5.63286e-05
0.000374555
0.00101021
5.016e-05
0.000393187
0.00109373
4.22603e-05
0.000391722
0.00120493
3.78163e-05
0.000351661
0.00135863
3.41788e-05
0.000233463
0.00154429
3.8027e-05
0.00163712
4.59025e-05
4.67639e-05
7.34724e-05
2.62345e-05
0.000173271
0.000360739
5.38979e-05
0.00030385
0.000633896
7.09422e-05
0.00040545
0.000824133
7.40164e-05
0.000475296
0.000950468
6.60936e-05
0.000522127
0.00105925
5.42791e-05
0.000549034
0.00119203
4.64389e-05
0.000523767
0.00140067
4.21493e-05
0.000421725
0.00166508
4.93781e-05
0.00208135
6.27554e-05
6.49133e-05
-9.26808e-06
2.62822e-05
0.000177518
3.74582e-05
0.000237183
0.000316806
6.42369e-05
0.000491866
0.000453405
7.26497e-05
0.000704442
0.000574536
6.60067e-05
0.000861679
0.000677232
5.24937e-05
0.000996173
0.000774947
4.19426e-05
0.00113428
0.000806894
3.72631e-05
0.0014087
0.000801583
5.01759e-05
0.00170653
7.86391e-05
0.00292472
5.67889e-05
0.000957878
8.28075e-06
2.11543e-05
0.00104968
6.20747e-06
6.15985e-06
0.00102999
6.10278e-06
2.03875e-06
0.0010193
6.12457e-06
6.07691e-08
0.00101727
6.13798e-06
-1.92105e-06
0.00101728
6.13751e-06
-6.03862e-06
0.0010193
6.12329e-06
-2.09845e-05
0.00102995
6.1027e-06
-5.66192e-05
0.00104972
6.22154e-06
0.000958046
8.27627e-06
4.20681e-05
0.000926308
1.32758e-05
2.28658e-05
0.00107844
1.25671e-05
1.2553e-05
0.00105065
1.23556e-05
5.78654e-06
0.00103657
1.25117e-05
2.4452e-07
0.00103345
1.25826e-05
-5.30581e-06
0.00103347
1.25832e-05
-1.20988e-05
0.00103659
1.25138e-05
-2.24202e-05
0.0010506
1.23636e-05
-4.15652e-05
0.00107843
1.2591e-05
0.000926946
1.32652e-05
2.53545e-05
0.000906226
1.15386e-05
1.66401e-05
0.00109282
1.10944e-05
1.09188e-05
0.00106213
1.05775e-05
5.64074e-06
0.00104755
1.06684e-05
4.22605e-07
0.0010445
1.07376e-05
-4.82172e-06
0.00104454
1.07372e-05
-1.0183e-05
0.00104765
1.06679e-05
-1.60005e-05
0.00106218
1.05807e-05
-2.48706e-05
0.001093
1.10977e-05
0.000907324
1.15413e-05
1.48298e-05
0.000894015
9.26302e-06
1.33206e-05
0.00109917
9.05957e-06
8.97336e-06
0.00107089
8.47043e-06
4.56459e-06
0.00105625
8.45738e-06
6.03061e-07
0.00105289
8.53639e-06
-3.39902e-06
0.00105297
8.5348e-06
-7.93246e-06
0.00105647
8.4513e-06
-1.24e-05
0.00107107
8.46657e-06
-1.4167e-05
0.00109964
9.04378e-06
0.000895767
9.2917e-06
8.23919e-06
0.000886888
7.79742e-06
1.17324e-05
0.00110026
7.94573e-06
8.18247e-06
0.00107809
7.47996e-06
4.14158e-06
0.00106389
7.48914e-06
8.25705e-07
0.00105995
7.63565e-06
-2.54134e-06
0.00106009
7.63439e-06
-6.76165e-06
0.00106428
7.47949e-06
-1.05067e-05
0.00107845
7.46887e-06
-7.32368e-06
0.00110105
7.91579e-06
0.000889566
7.8527e-06
4.49197e-06
0.000882522
6.59897e-06
1.03276e-05
0.00109883
6.98309e-06
7.47185e-06
0.00108393
6.5205e-06
4.02383e-06
0.00107039
6.61891e-06
1.10698e-06
0.00106598
6.82792e-06
-1.8776e-06
0.0010662
6.82958e-06
-5.55992e-06
0.00107099
6.60472e-06
-8.70105e-06
0.00108454
6.48897e-06
-3.26408e-06
0.00110002
6.94009e-06
0.000886432
6.68918e-06
2.59107e-06
0.000879409
5.56925e-06
9.13288e-06
0.0010967
6.04589e-06
6.69302e-06
0.00108899
5.41247e-06
3.96326e-06
0.00107595
5.62298e-06
1.47302e-06
0.00107123
5.83126e-06
-1.1311e-06
0.00107154
5.82962e-06
-4.16156e-06
0.00107685
5.60354e-06
-6.99772e-06
0.00108997
5.37233e-06
-9.87129e-07
0.00109842
5.98971e-06
0.000884917
5.68409e-06
1.62414e-06
0.00087676
4.75558e-06
8.37552e-06
0.00109446
5.33367e-06
6.18086e-06
0.00109363
4.48062e-06
4.0821e-06
0.00108088
4.8173e-06
1.9425e-06
0.00107597
4.9676e-06
-3.65763e-07
0.00107639
4.95214e-06
-2.8493e-06
0.00108216
4.79395e-06
-5.55085e-06
0.00109515
4.43655e-06
4.23178e-07
0.00109698
5.24774e-06
0.000884244
4.92891e-06
1.12167e-06
0.000874129
4.07661e-06
8.02571e-06
0.00109229
4.9631e-06
6.06473e-06
0.00109789
3.83413e-06
4.46599e-06
0.0010853
4.28587e-06
2.53901e-06
0.00108032
4.33937e-06
4.13074e-07
0.00108088
4.31235e-06
-1.66423e-06
0.00108706
4.26004e-06
-4.29855e-06
0.0011001
3.76765e-06
1.48656e-06
0.00109601
4.81581e-06
0.000884044
4.3347e-06
1.04034e-06
0.000871225
3.52802e-06
7.93295e-06
0.00109015
4.78505e-06
6.26861e-06
0.00110171
3.33562e-06
5.096e-06
0.00108922
3.91561e-06
3.30959e-06
0.0010843
3.85673e-06
1.30155e-06
0.00108507
3.82475e-06
-4.67201e-07
0.00109161
3.89508e-06
-3.0746e-06
0.00110482
3.23934e-06
2.31222e-06
0.00109553
4.59576e-06
0.000884234
3.84277e-06
1.4665e-06
0.000867798
3.12296e-06
8.04252e-06
0.00108788
4.5967e-06
6.7313e-06
0.00110499
2.88041e-06
5.96699e-06
0.00109267
3.62174e-06
4.31874e-06
0.00108796
3.45311e-06
2.40398e-06
0.00108901
3.41685e-06
8.71784e-07
0.00109587
3.61135e-06
-1.70941e-06
0.00110928
2.75264e-06
2.88216e-06
0.00109545
4.38258e-06
0.000884839
3.47605e-06
2.24961e-06
0.000863579
2.82329e-06
8.46931e-06
0.00108546
4.4055e-06
7.52931e-06
0.00110774
2.49554e-06
7.1553e-06
0.00109571
3.39398e-06
5.64012e-06
0.00109135
3.12135e-06
3.7861e-06
0.00109275
3.07933e-06
2.40882e-06
0.00109995
3.39344e-06
-2.21767e-07
0.0011136
2.32294e-06
3.39228e-06
0.00109589
4.16617e-06
0.000885915
3.2069e-06
3.30824e-06
0.00085826
2.58306e-06
9.34256e-06
0.0010829
4.29245e-06
8.78514e-06
0.00110998
2.22132e-06
8.75782e-06
0.00109838
3.24245e-06
7.3607e-06
0.00109449
2.86592e-06
5.51329e-06
0.00109636
2.81306e-06
4.18301e-06
0.00110397
3.24979e-06
1.36683e-06
0.00111797
1.9816e-06
4.03855e-06
0.00109695
4.03834e-06
0.000887606
2.9821e-06
4.72692e-06
0.00085147
2.39507e-06
1.07263e-05
0.00108008
4.25395e-06
1.06025e-05
0.00111167
2.05066e-06
1.08776e-05
0.00110072
3.16183e-06
9.59442e-06
0.00109743
2.68074e-06
7.69464e-06
0.0010999
2.60733e-06
6.29195e-06
0.00110803
3.17018e-06
3.15995e-06
0.00112252
1.72439e-06
4.85325e-06
0.0010987
3.98926e-06
0.000890137
2.78267e-06
6.59013e-06
0.000842788
2.26807e-06
1.27227e-05
0.00107683
4.27088e-06
1.31111e-05
0.00111275
1.9768e-06
1.36698e-05
0.00110273
3.14051e-06
1.24962e-05
0.00110019
2.56328e-06
1.04851e-05
0.00110344
2.45543e-06
8.87548e-06
0.00111226
3.13959e-06
5.28891e-06
0.00112739
1.53341e-06
5.86136e-06
0.00110126
3.98125e-06
0.000893782
2.64628e-06
9.01518e-06
0.000831692
2.22916e-06
1.54946e-05
0.00107295
4.34313e-06
1.64829e-05
0.00111314
1.99877e-06
1.73276e-05
0.00110441
3.17633e-06
1.62592e-05
0.00110281
2.52005e-06
1.40745e-05
0.00110706
2.36162e-06
1.21083e-05
0.00111679
3.15431e-06
7.90445e-06
0.00113277
1.4058e-06
7.12807e-06
0.00110485
3.99729e-06
0.000898864
2.59643e-06
1.21454e-05
0.000817523
2.30822e-06
1.92633e-05
0.00106818
4.49579e-06
2.09517e-05
0.00111277
2.14276e-06
2.20974e-05
0.00110575
3.28659e-06
2.11286e-05
0.00110532
2.56801e-06
1.86972e-05
0.00111085
2.34007e-06
1.62027e-05
0.00112178
3.22221e-06
1.11814e-05
0.00113888
1.35285e-06
8.75485e-06
0.00110978
4.03855e-06
0.000905778
2.64239e-06
1.61389e-05
0.000799458
2.57187e-06
2.42896e-05
0.00106217
4.7648e-06
2.68159e-05
0.00111153
2.44053e-06
2.82938e-05
0.00110673
3.50285e-06
2.7418e-05
0.00110775
2.73429e-06
2.46546e-05
0.00111494
2.41406e-06
2.14363e-05
0.00112744
3.35846e-06
1.53421e-05
0.00114601
1.38994e-06
1.08712e-05
0.0011165
4.12131e-06
0.00091505
2.8019e-06
2.11629e-05
0.000776519
3.10025e-06
3.09065e-05
0.00105446
5.21142e-06
3.44437e-05
0.0011093
2.94767e-06
3.63083e-05
0.00110733
3.87255e-06
3.55251e-05
0.00111016
3.058e-06
3.23376e-05
0.00111945
2.61777e-06
2.81669e-05
0.00113402
3.5933e-06
2.06681e-05
0.00115455
1.54488e-06
1.36385e-05
0.00112557
4.27334e-06
0.00092737
3.10485e-06
2.73652e-05
0.000747619
3.99127e-06
3.95068e-05
0.00104438
5.94714e-06
4.42846e-05
0.00110594
3.75029e-06
4.66306e-05
0.0011075
4.46945e-06
4.59575e-05
0.00111258
3.59766e-06
4.22552e-05
0.00112453
3.00289e-06
3.68676e-05
0.0011418
3.96748e-06
2.75376e-05
0.00116496
1.85432e-06
1.72865e-05
0.00113773
4.53941e-06
0.00094368
3.5943e-06
3.48166e-05
0.000711672
5.41971e-06
5.05757e-05
0.00103095
7.11485e-06
5.68967e-05
0.00110127
4.95001e-06
5.98491e-05
0.00110719
5.39282e-06
5.93506e-05
0.00111504
4.43591e-06
5.50692e-05
0.00113032
3.64473e-06
4.81771e-05
0.00115114
4.54702e-06
3.64835e-05
0.00117785
2.38049e-06
2.21247e-05
0.00115398
4.9822e-06
0.000965262
4.33678e-06
4.34952e-05
0.000667785
7.59377e-06
6.45602e-05
0.00101279
8.9111e-06
7.29133e-05
0.00109497
6.67938e-06
7.66639e-05
0.00110633
6.77088e-06
7.64952e-05
0.00111752
5.68788e-06
7.16583e-05
0.00113694
4.65046e-06
6.29819e-05
0.00116242
5.4275e-06
4.82651e-05
0.001194
3.21417e-06
2.86239e-05
0.00117564
5.68954e-06
0.000993921
5.42374e-06
5.31917e-05
0.000615517
1.06922e-05
8.17573e-05
0.000988111
1.15791e-05
9.298e-05
0.0010865
9.11743e-06
9.78852e-05
0.00110475
8.76981e-06
9.83762e-05
0.00111988
7.50504e-06
9.31868e-05
0.00114439
6.16006e-06
8.25322e-05
0.00117602
6.72747e-06
6.40087e-05
0.0012144
4.46513e-06
3.74927e-05
0.00120454
6.77464e-06
0.00103226
6.98362e-06
6.3383e-05
0.000554973
1.48342e-05
0.000101973
0.000954983
1.53626e-05
0.00011763
0.00107486
1.24789e-05
0.00012443
0.00110209
1.16012e-05
0.000126223
0.00112183
1.00832e-05
0.000121229
0.00115245
8.33854e-06
0.000108647
0.00119219
8.58468e-06
8.54649e-05
0.00124018
6.26846e-06
4.98657e-05
0.00124321
8.37975e-06
0.00108415
9.17418e-06
7.30997e-05
0.000486815
1.9839e-05
0.000124329
0.000911469
2.03548e-05
0.000147054
0.00105832
1.6988e-05
0.000157227
0.00109758
1.55218e-05
0.000161502
0.00112276
1.365e-05
0.000157894
0.0011605
1.13742e-05
0.000144022
0.0012108
1.11425e-05
0.000115511
0.00127255
8.75242e-06
6.78358e-05
0.00129526
1.06445e-05
0.00115587
1.21702e-05
8.10278e-05
0.000412306
2.48591e-05
0.000147172
0.000855451
2.63555e-05
0.000180796
0.00103417
2.27993e-05
0.000197065