/*--------------------------------*- C++ -*----------------------------------*\
| =========                 |                                                 |
| \\      /  F ield         | OpenFOAM: The Open Source CFD Toolbox           |
|  \\    /   O peration     | Version:  4.1                                   |
|   \\  /    A nd           | Web:      www.OpenFOAM.org                      |
|    \\/     M anipulation  |                                                 |
\*---------------------------------------------------------------------------*/
FoamFile
{
    version     2.0;
    format      ascii;
    class       volVectorField;
    location    "1100";
    object      U;
}
// * * * * * * * * * * * * * * * * * * * * * * * * * * * * * * * * * * * * * //

dimensions      [0 1 -1 0 0 0 0];

internalField   nonuniform List<vector> 
12000
(
(0.0919579 -0.00966282 0.00965803)
(0.0965519 -0.0017955 0.0105909)
(0.0959626 -0.00134958 0.0110082)
(0.0955744 -0.000556712 0.0110266)
(0.0954781 -0.000150258 0.0110555)
(0.0954783 0.000132438 0.0110554)
(0.0955747 0.00053996 0.0110264)
(0.0959627 0.00133417 0.0110085)
(0.0965508 0.00178335 0.0105965)
(0.0919625 0.00965679 0.00965904)
(0.0862297 -0.00383039 0.00381933)
(0.0951538 -0.00255401 0.00536779)
(0.0937624 -0.00198387 0.00582583)
(0.092692 -0.000891039 0.00580047)
(0.0923582 -0.000281378 0.00583403)
(0.0923593 0.000233352 0.00583385)
(0.0926947 0.00084579 0.00579937)
(0.0937642 0.001943 0.00582381)
(0.0951537 0.00252555 0.00537065)
(0.0862477 0.00380235 0.00381735)
(0.0822257 0.000787142 -0.000805485)
(0.0930939 -0.0025741 0.000261502)
(0.0918453 -0.0016691 0.000580464)
(0.090615 -0.000805007 0.000580349)
(0.0901378 -0.000304703 0.000618404)
(0.0901413 0.000223227 0.000617732)
(0.0906237 0.00072897 0.000579355)
(0.0918548 0.00160265 0.00058031)
(0.0931034 0.00252856 0.00026863)
(0.082279 -0.000823662 -0.000803776)
(0.0794624 0.00270972 -0.00273674)
(0.0906338 -0.0025192 -0.00238343)
(0.0900215 -0.00119604 -0.00226548)
(0.089006 -0.000680483 -0.00218325)
(0.0885011 -0.000306849 -0.00213123)
(0.0885084 0.000185143 -0.0021313)
(0.0890255 0.00056751 -0.00218425)
(0.0900461 0.0010969 -0.00226379)
(0.0906579 0.00244824 -0.00237239)
(0.0795622 -0.00276033 -0.00273206)
(0.0780201 0.00319937 -0.00323773)
(0.0888591 -0.00243342 -0.00345861)
(0.088956 -0.000807566 -0.00356275)
(0.0881768 -0.00063895 -0.00338346)
(0.0876641 -0.000319048 -0.00332026)
(0.0876776 0.000146602 -0.00332062)
(0.088212 0.000480438 -0.00338578)
(0.0890049 0.000666943 -0.00356108)
(0.0889036 0.00233078 -0.00344823)
(0.0781897 -0.00327191 -0.00323328)
(0.077217 0.00309823 -0.00315188)
(0.0877209 -0.00230784 -0.00376118)
(0.0884928 -0.000505763 -0.00406909)
(0.087857 -0.000644149 -0.00380566)
(0.0873229 -0.000329423 -0.00374328)
(0.0873471 9.2818e-05 -0.00374493)
(0.087914 0.000428455 -0.0038083)
(0.0885791 0.000311759 -0.00406826)
(0.0877936 0.00216432 -0.00375338)
(0.0774865 -0.00320053 -0.003148)
(0.0765126 0.00278286 -0.00285649)
(0.0868627 -0.00216988 -0.00369874)
(0.0882548 -0.000283564 -0.00417412)
(0.0876914 -0.00066952 -0.00384651)
(0.0871445 -0.000333349 -0.00379841)
(0.087181 1.41367e-05 -0.00379711)
(0.0877779 0.000376895 -0.00384954)
(0.0883864 2.08445e-05 -0.00418287)
(0.0869726 0.00197609 -0.00369528)
(0.076921 -0.00292329 -0.00285315)
(0.0757436 0.00241238 -0.00251178)
(0.086106 -0.00203649 -0.00348998)
(0.0880578 -0.000136913 -0.00408735)
(0.0875349 -0.000715008 -0.0037036)
(0.0870037 -0.000340023 -0.00367493)
(0.0870464 -8.70748e-05 -0.00367414)
(0.0876642 0.000320629 -0.00370749)
(0.0882649 -0.000214231 -0.00410222)
(0.0862644 0.00177959 -0.00348943)
(0.076342 -0.00259989 -0.00250903)
(0.0749274 0.00204639 -0.00217896)
(0.0854535 -0.00191382 -0.00323106)
(0.0878768 -4.99278e-05 -0.00391576)
(0.0873722 -0.000780817 -0.00348152)
(0.0868773 -0.000361343 -0.00347153)
(0.0869256 -0.000208745 -0.00347831)
(0.0875549 0.000258608 -0.0034867)
(0.0881838 -0.000415882 -0.00392511)
(0.0856733 0.00157237 -0.00323177)
(0.0757832 -0.00229305 -0.00217735)
(0.0740843 0.00170783 -0.00188369)
(0.0849603 -0.00181874 -0.00293346)
(0.0877086 -2.19348e-05 -0.00370424)
(0.0872028 -0.000867828 -0.00323993)
(0.0867601 -0.000406133 -0.00324654)
(0.0868263 -0.0003527 -0.00325973)
(0.0874566 0.000183323 -0.00324256)
(0.0881397 -0.000592988 -0.00370742)
(0.0852583 0.0013626 -0.00293677)
(0.0752841 -0.00202893 -0.0018814)
(0.0732137 0.00140326 -0.00163645)
(0.0845456 -0.00175892 -0.00262419)
(0.087543 -6.41246e-05 -0.00347326)
(0.0870197 -0.000982227 -0.00300553)
(0.0866484 -0.000482141 -0.00302749)
(0.0867493 -0.000522311 -0.00304351)
(0.0873694 8.36565e-05 -0.00300136)
(0.0881267 -0.000744385 -0.00347521)
(0.0849568 0.00115306 -0.00262861)
(0.0748679 -0.00181785 -0.0016291)
(0.0723039 0.00112083 -0.00142954)
(0.084114 -0.00173631 -0.00235217)
(0.0873616 -0.000170915 -0.00324672)
(0.0868184 -0.00113047 -0.00278961)
(0.0865353 -0.000599172 -0.00282464)
(0.0866893 -0.000723994 -0.00284239)
(0.0872907 -5.21375e-05 -0.00277798)
(0.0881431 -0.000889763 -0.00324685)
(0.0846841 0.000935146 -0.0023583)
(0.0745437 -0.0016505 -0.00141134)
(0.0713267 0.000845878 -0.00125307)
(0.0836834 -0.00176015 -0.00212145)
(0.0871477 -0.000336105 -0.00303593)
(0.0865998 -0.00132374 -0.00259686)
(0.086418 -0.000769781 -0.00263979)
(0.0866444 -0.000968412 -0.002658)
(0.0872295 -0.000236057 -0.00257751)
(0.0881901 -0.00105532 -0.00303575)
(0.0844922 0.000705236 -0.00213283)
(0.0743085 -0.00151551 -0.00121732)
(0.0702417 0.000567656 -0.00110227)
(0.0832456 -0.00184077 -0.00192134)
(0.0868963 -0.000568753 -0.00283712)
(0.0863658 -0.00157825 -0.00242667)
(0.0862954 -0.00100976 -0.00247136)
(0.0866149 -0.00126948 -0.00248846)
(0.0871957 -0.000481639 -0.00239785)
(0.0882752 -0.00125757 -0.00284203)
(0.0844005 0.000455864 -0.00194087)
(0.0741701 -0.00141189 -0.0010449)
(0.0689985 0.000273666 -0.000971358)
(0.0827855 -0.00199547 -0.00174246)
(0.0865977 -0.000885114 -0.00265067)
(0.0861138 -0.00191101 -0.00227581)
(0.0861674 -0.00133945 -0.00231676)
(0.0866015 -0.00164512 -0.00233264)
(0.0872005 -0.000805181 -0.00223458)
(0.0884108 -0.00151141 -0.00266166)
(0.084424 0.000177144 -0.00177096)
(0.074148 -0.00134119 -0.000893614)
(0.0675305 -4.90686e-05 -0.000854795)
(0.0822752 -0.00224371 -0.00157821)
(0.0862381 -0.00130801 -0.00247346)
(0.0858363 -0.00234622 -0.00213971)
(0.0860297 -0.00178529 -0.00217337)
(0.0866059 -0.00211901 -0.00218874)
(0.087252 -0.00122852 -0.0020851)
(0.0886117 -0.00183548 -0.00249245)
(0.0845819 -0.000143689 -0.00161625)
(0.074269 -0.00130555 -0.000759923)
(0.0657512 -0.000414799 -0.000746294)
(0.0816717 -0.00260828 -0.00142283)
(0.0857988 -0.00186818 -0.00230212)
(0.0855211 -0.00291666 -0.00201437)
(0.0858773 -0.00238045 -0.00203721)
(0.0866299 -0.00272203 -0.00205319)
(0.0873626 -0.00178064 -0.0019456)
(0.088898 -0.00225452 -0.00233233)
(0.0848967 -0.000524149 -0.00147327)
(0.074566 -0.00130925 -0.000638059)
(0.0635499 -0.000838322 -0.000638145)
(0.0809179 -0.00311726 -0.00126751)
(0.0852562 -0.00260633 -0.0021282)
(0.0851548 -0.00366468 -0.00189435)
(0.0857012 -0.00316689 -0.00190382)
(0.086674 -0.00349463 -0.00192206)
(0.0875429 -0.00249879 -0.00181283)
(0.0892958 -0.00280052 -0.0021777)
(0.0854008 -0.000987655 -0.00133775)
(0.0750801 -0.00135868 -0.000521427)
(0.0607861 -0.00133395 -0.000519332)
(0.0799186 -0.00380524 -0.00110276)
(0.0845633 -0.00357343 -0.00194284)
(0.0847165 -0.00464176 -0.001773)
(0.0854891 -0.00419739 -0.00176735)
(0.0867369 -0.00448894 -0.00178907)
(0.0878077 -0.00343033 -0.00168088)
(0.0898332 -0.00351575 -0.00202192)
(0.0861344 -0.00156639 -0.00120554)
(0.0758643 -0.00146392 -0.000403015)
(0.0572842 -0.00191141 -0.000374137)
(0.0785404 -0.00471088 -0.000914603)
(0.0836808 -0.00483345 -0.0017348)
(0.0841748 -0.00591183 -0.00164186)
(0.0852199 -0.0055367 -0.0016214)
(0.0868118 -0.00577135 -0.00164665)
(0.0881706 -0.00463927 -0.00154206)
(0.090525 -0.00445621 -0.00185411)
(0.0871545 -0.00230177 -0.00106995)
(0.0769899 -0.00163866 -0.000273935)
(0.052833 -0.00256749 -0.000181122)
(0.0765774 -0.00586655 -0.000684537)
(0.0825355 -0.00645937 -0.00148895)
(0.0834916 -0.0075555 -0.00148671)
(0.0848619 -0.00726612 -0.00145653)
(0.0868803 -0.00742896 -0.00148454)
(0.0886392 -0.006213 -0.00138798)
(0.0914033 -0.00569949 -0.00166854)
(0.0885291 -0.003249 -0.000923534)
(0.0785498 -0.00190431 -0.00012422)
(0.0472013 -0.00327154 8.18684e-05)
(0.073747 -0.00728431 -0.000383844)
(0.0810146 -0.00852416 -0.00118247)
(0.082601 -0.00966923 -0.00128846)
(0.084364 -0.00948584 -0.00126047)
(0.0869063 -0.00957351 -0.00129104)
(0.0892168 -0.00826723 -0.00120665)
(0.092516 -0.00735427 -0.00145335)
(0.09035 -0.00448807 -0.000753604)
(0.0806735 -0.00229228 6.03513e-05)
(0.0401797 -0.00394467 0.000427775)
(0.0696442 -0.00892602 1.65519e-05)
(0.078917 -0.0110738 -0.000787086)
(0.0814025 -0.0123579 -0.00101991)
(0.0836464 -0.0123155 -0.00101335)
(0.0868248 -0.0123485 -0.00104568)
(0.0898801 -0.0109609 -0.000979167)
(0.0939022 -0.00957962 -0.0011939)
(0.0927315 -0.00614052 -0.000544401)
(0.0835378 -0.00285474 0.000297612)
(0.0316579 -0.00443096 0.000843669)
(0.0637815 -0.0106504 0.000526983)
(0.0759043 -0.014068 -0.000272362)
(0.079716 -0.015714 -0.000645401)
(0.0825755 -0.0158968 -0.000689504)
(0.0865146 -0.0159387 -0.000724498)
(0.0905675 -0.0145156 -0.000677701)
(0.0955975 -0.0126144 -0.000863869)
(0.0958304 -0.008396 -0.000268987)
(0.0874155 -0.00367171 0.000613309)
(0.0217467 -0.00445798 0.00125028)
(0.0556297 -0.0121331 0.00111039)
(0.0714002 -0.0172813 0.000384432)
(0.0771926 -0.0197636 -0.000113732)
(0.0809297 -0.0203932 -0.000246691)
(0.0857718 -0.0205847 -0.000295752)
(0.0911352 -0.0192391 -0.000269513)
(0.0976085 -0.0168246 -0.000429421)
(0.0998541 -0.011578 0.000107223)
(0.0927007 -0.00489723 0.00104655)
(0.0109697 -0.00356523 0.00138659)
(0.0448821 -0.0127579 0.00160742)
(0.0645617 -0.0201715 0.00119151)
(0.0731777 -0.0243551 0.000660423)
(0.0783028 -0.0259751 0.000385765)
(0.0842635 -0.0266132 0.000280131)
(0.0912972 -0.0255765 0.000284886)
(0.0998316 -0.0227874 0.000153098)
(0.105057 -0.0162282 0.000635741)
(0.100185 -0.00675836 0.00164414)
(0.00061962 -0.000902891 0.00129432)
(0.0313954 -0.0115735 0.00173936)
(0.054059 -0.0218005 0.00199313)
(0.0663772 -0.0289379 0.00174932)
(0.0738895 -0.0326327 0.00135903)
(0.0814549 -0.0343769 0.0011006)
(0.0906173 -0.0341254 0.00103818)
(0.102087 -0.031422 0.000936437)
(0.111836 -0.0234337 0.00139068)
(0.11093 -0.00996769 0.00251176)
(-0.00357274 0.00228227 0.0019716)
(0.0173865 -0.00757045 0.00224485)
(0.0394026 -0.0207909 0.00296184)
(0.0552073 -0.0324717 0.00312815)
(0.0661836 -0.0400908 0.00275579)
(0.0761877 -0.0443181 0.00229562)
(0.0879614 -0.0457931 0.00208112)
(0.103402 -0.0441567 0.00197904)
(0.119876 -0.0352273 0.0024499)
(0.128797 -0.015128 0.00372845)
(-0.00655004 0.000231089 0.00078664)
(-0.000980183 -0.00462366 0.00232793)
(0.0180971 -0.0165158 0.00439601)
(0.037018 -0.031926 0.00534432)
(0.0527558 -0.0455252 0.00505293)
(0.0669644 -0.0553756 0.00422141)
(0.0824966 -0.0613585 0.00361064)
(0.103448 -0.0632568 0.00336009)
(0.129382 -0.0562247 0.00392719)
(0.15613 -0.0283559 0.00555262)
(-0.0126314 -0.00428507 -0.00180631)
(-0.0154679 -0.0138457 -0.00201367)
(-0.00538491 -0.0227185 0.000797008)
(0.0105233 -0.0332093 0.00459021)
(0.0280302 -0.0475813 0.0067522)
(0.046622 -0.0635516 0.00696072)
(0.0663732 -0.0791812 0.00616647)
(0.095537 -0.0892855 0.00541506)
(0.1287 -0.100954 0.00559466)
(0.217024 -0.0468349 0.00813414)
(0.0965486 -0.0105952 0.00178799)
(0.10128 -0.00129694 0.00129102)
(0.10089 -0.00120216 0.00141014)
(0.100622 -0.000450163 0.00138033)
(0.100581 -0.000110571 0.00139349)
(0.100581 9.72919e-05 0.00139342)
(0.100623 0.00043724 0.00138018)
(0.100892 0.00118917 0.00141046)
(0.101286 0.00128402 0.00129903)
(0.0965603 0.0105759 0.00178774)
(0.0951427 -0.00537744 0.00253593)
(0.108571 -0.00239799 0.00238103)
(0.106144 -0.00199926 0.00250361)
(0.104958 -0.000786013 0.00244277)
(0.104728 -0.000247114 0.00247547)
(0.104729 0.000198221 0.00247567)
(0.104958 0.000738406 0.00244303)
(0.10614 0.00195311 0.00250436)
(0.108572 0.0023692 0.00238988)
(0.095173 0.00530776 0.00253105)
(0.0930685 -0.000277039 0.00254521)
(0.112226 -0.00287494 0.00284737)
(0.109318 -0.00171773 0.00285979)
(0.107698 -0.000667036 0.00277965)
(0.107354 -0.000285034 0.00281896)
(0.107356 0.000201321 0.00281901)
(0.107704 0.000587215 0.00277881)
(0.109319 0.00164596 0.00285992)
(0.112233 0.0028336 0.00285688)
(0.0931543 0.000210394 0.00254331)
(0.0905856 0.00236001 0.00247769)
(0.112563 -0.00323142 0.00319234)
(0.110137 -0.00121901 0.00311242)
(0.108578 -0.000531369 0.00305267)
(0.108225 -0.000305987 0.00309847)
(0.10823 0.000185574 0.00309794)
(0.108593 0.000418892 0.00304998)
(0.110151 0.00111762 0.00311063)
(0.1126 0.00316237 0.00319783)
(0.0907302 -0.0024332 0.00248096)
(0.0887778 0.0034237 0.00237589)
(0.111764 -0.00346541 0.00341227)
(0.110068 -0.000784928 0.00325581)
(0.10869 -0.000524239 0.0032517)
(0.108333 -0.000337142 0.0033038)
(0.108342 0.000171178 0.00330405)
(0.108719 0.000372381 0.00324779)
(0.110095 0.000645122 0.00325141)
(0.111831 0.00336539 0.00341423)
(0.0890074 -0.00350554 0.00238591)
(0.0875931 0.00371075 0.00222932)
(0.110936 -0.00356479 0.00349385)
(0.10993 -0.000431683 0.00325165)
(0.108687 -0.000587535 0.00330625)
(0.108293 -0.000356042 0.0033507)
(0.108304 0.000132971 0.00335156)
(0.108737 0.000385259 0.0033023)
(0.109977 0.00024285 0.0032393)
(0.111041 0.00342738 0.00349336)
(0.0879355 -0.00380442 0.00224629)
(0.0866709 0.00362856 0.00206385)
(0.110166 -0.00358021 0.00348569)
(0.109791 -0.00016227 0.00316403)
(0.108659 -0.000671718 0.00327463)
(0.108226 -0.000355042 0.00329724)
(0.10824 5.83497e-05 0.00329158)
(0.108735 0.000405322 0.00327214)
(0.109876 -9.28925e-05 0.00315351)
(0.11032 0.00339888 0.00348444)
(0.0871644 -0.00374654 0.00208694)
(0.0858275 0.00339479 0.00189414)
(0.109427 -0.0035598 0.00343392)
(0.109601 1.59072e-05 0.00304701)
(0.108564 -0.000769745 0.0032083)
(0.108107 -0.000346155 0.00319997)
(0.108139 -4.7379e-05 0.00318812)
(0.108673 0.000423313 0.00320629)
(0.10972 -0.000355142 0.00304298)
(0.109644 0.00331914 0.00343211)
(0.0865231 -0.00354999 0.00192085)
(0.0850593 0.00310406 0.00172314)
(0.108678 -0.00353705 0.0033687)
(0.109384 9.74972e-05 0.00291353)
(0.108425 -0.000886902 0.00311185)
(0.107962 -0.000343536 0.00306995)
(0.10802 -0.000175147 0.00306193)
(0.108578 0.000434868 0.00311159)
(0.109544 -0.000543287 0.00290184)
(0.10898 0.00321651 0.00336964)
(0.0860216 -0.00331085 0.00175071)
(0.0844159 0.00276505 0.00156386)
(0.107832 -0.00345822 0.00323352)
(0.109179 9.23319e-05 0.00276856)
(0.108292 -0.00101864 0.00299399)
(0.107833 -0.000356385 0.00292202)
(0.107917 -0.000322847 0.00292093)
(0.108499 0.000424381 0.00299599)
(0.109406 -0.000676538 0.00274271)
(0.108252 0.00304243 0.00324635)
(0.0857224 -0.00304273 0.00159151)
(0.0838048 0.00240167 0.00141863)
(0.107014 -0.0033102 0.00301348)
(0.10898 3.12678e-05 0.0026249)
(0.108181 -0.00115976 0.00287184)
(0.107732 -0.000392775 0.00277278)
(0.107839 -0.000494639 0.00277445)
(0.108454 0.00037807 0.00287261)
(0.109313 -0.000794035 0.00258879)
(0.107573 0.00277198 0.00303648)
(0.0855679 -0.0027693 0.00145009)
(0.0831134 0.00206025 0.00128198)
(0.106333 -0.00318725 0.00279674)
(0.108776 -7.39689e-05 0.002486)
(0.108081 -0.00132121 0.0027556)
(0.107653 -0.00046365 0.00263159)
(0.107785 -0.000695606 0.00263204)
(0.108442 0.000293184 0.0027547)
(0.109252 -0.000921857 0.00244511)
(0.107076 0.00248906 0.00282925)
(0.0854739 -0.00254057 0.00132206)
(0.0823436 0.00174067 0.00115451)
(0.105699 -0.00312976 0.00261526)
(0.108558 -0.000233678 0.00235731)
(0.10798 -0.00151746 0.00264782)
(0.107588 -0.000582519 0.00250234)
(0.107748 -0.000931415 0.00249827)
(0.108459 0.00016501 0.00264648)
(0.109226 -0.00106339 0.00231)
(0.106687 0.00222255 0.00266016)
(0.0854846 -0.0023648 0.00120974)
(0.0814672 0.00142706 0.00103597)
(0.105072 -0.00312883 0.00245148)
(0.108319 -0.000456361 0.0022443)
(0.10787 -0.00175934 0.00254849)
(0.107532 -0.000764561 0.00238704)
(0.107731 -0.001212 0.0023739)
(0.108506 -1.79402e-05 0.0025469)
(0.109243 -0.0012334 0.00218454)
(0.10638 0.0019479 0.00250789)
(0.0856264 -0.00223379 0.00111349)
(0.0804455 0.00110416 0.00093129)
(0.104425 -0.00318708 0.0022977)
(0.108045 -0.000752842 0.00214475)
(0.107748 -0.00206309 0.00245644)
(0.107484 -0.00102762 0.00228582)
(0.107738 -0.00155213 0.00226059)
(0.108591 -0.000272146 0.00245334)
(0.109317 -0.00144656 0.00207078)
(0.106172 0.00164729 0.00236439)
(0.085901 -0.00213487 0.0010343)
(0.0792238 0.000758613 0.000844757)
(0.103737 -0.0033168 0.0021527)
(0.107723 -0.00114021 0.00205758)
(0.107606 -0.00244951 0.00237254)
(0.107442 -0.00139336 0.00220001)
(0.107774 -0.00197171 0.0021607)
(0.108724 -0.000616922 0.00236675)
(0.109464 -0.0017184 0.00197242)
(0.106097 0.0013039 0.00222937)
(0.0863111 -0.00206232 0.000973614)
(0.0777303 0.000377553 0.000780195)
(0.102981 -0.00354194 0.00202397)
(0.10734 -0.00164272 0.0019877)
(0.107441 -0.00294518 0.00230092)
(0.107405 -0.00188938 0.0021318)
(0.107845 -0.00249623 0.00207684)
(0.108916 -0.00107599 0.00228917)
(0.1097 -0.0020704 0.00189163)
(0.106187 0.000903207 0.00210683)
(0.0868887 -0.00201942 0.000933777)
(0.0758855 -5.48385e-05 0.000743981)
(0.102117 -0.00388685 0.00191708)
(0.10688 -0.00229341 0.00194028)
(0.107244 -0.00358308 0.00224669)
(0.107375 -0.00255076 0.00208458)
(0.107959 -0.0031592 0.00201242)
(0.109185 -0.00168024 0.00222478)
(0.110047 -0.0025293 0.00183028)
(0.106479 0.00042669 0.00200138)
(0.0876799 -0.00201285 0.000917645)
(0.0735824 -0.000551642 0.000745897)
(0.101101 -0.00438307 0.00184504)
(0.106341 -0.00313562 0.00192306)
(0.107006 -0.00440668 0.00221515)
(0.107351 -0.00342207 0.00206315)
(0.108127 -0.00400402 0.0019727)
(0.109553 -0.00247224 0.00217915)
(0.110539 -0.00313036 0.00179584)
(0.107027 -0.000147576 0.00192082)
(0.0887456 -0.00205095 0.000929762)
(0.0707102 -0.00112481 0.000801772)
(0.0998553 -0.00506476 0.00182484)
(0.105699 -0.00422336 0.00194411)
(0.10672 -0.00547113 0.0022181)
(0.107336 -0.0045594 0.00207505)
(0.108361 -0.00508696 0.00196397)
(0.110045 -0.00350637 0.00215729)
(0.111236 -0.00392111 0.00179067)
(0.107893 -0.000853166 0.00187328)
(0.0901716 -0.00214767 0.000977476)
(0.067134 -0.00177674 0.000936547)
(0.098273 -0.00597309 0.00188473)
(0.104935 -0.00561933 0.00201492)
(0.106372 -0.00684387 0.0022661)
(0.107327 -0.00603268 0.00213218)
(0.108675 -0.00648182 0.00199749)
(0.110697 -0.004855 0.00217168)
(0.112201 -0.00496763 0.00182536)
(0.109168 -0.00173695 0.00186993)
(0.0920725 -0.00232013 0.00107235)
(0.0627253 -0.00250521 0.00118229)
(0.0961901 -0.00713035 0.00204955)
(0.104011 -0.00739104 0.00215706)
(0.105951 -0.0086062 0.0023746)
(0.107318 -0.00792802 0.00225123)
(0.109082 -0.00828559 0.00209163)
(0.111542 -0.00661817 0.0022368)
(0.113504 -0.00636289 0.00191295)
(0.110967 -0.00286977 0.00192578)
(0.0946081 -0.00259745 0.00123133)
(0.0573136 -0.00328006 0.00156754)
(0.0934102 -0.00853421 0.00234806)
(0.102864 -0.00960025 0.00240196)
(0.105435 -0.0108539 0.00256744)
(0.107289 -0.0103513 0.00245294)
(0.10958 -0.0106263 0.00226807)
(0.112619 -0.00893592 0.00237546)
(0.115238 -0.00824579 0.0020734)
(0.113454 -0.00435657 0.00206508)
(0.0980023 -0.00302233 0.00148001)
(0.0507482 -0.00402133 0.00209164)
(0.0896472 -0.0101486 0.00281163)
(0.101356 -0.0122872 0.00279902)
(0.104778 -0.0136968 0.00288415)
(0.107199 -0.0134359 0.00276973)
(0.110151 -0.0136727 0.00255394)
(0.113954 -0.0120032 0.00261416)
(0.11751 -0.0108244 0.00233641)
(0.116845 -0.00636536 0.0023187)
(0.102591 -0.00366655 0.00185551)
(0.0429037 -0.00457227 0.00268056)
(0.0844798 -0.0118614 0.00344327)
(0.0992092 -0.0154136 0.00339288)
(0.103871 -0.0172405 0.00338543)
(0.106965 -0.0173472 0.00324904)
(0.110735 -0.0176552 0.0029975)
(0.115559 -0.0161043 0.00299791)
(0.120449 -0.0144285 0.00274209)
(0.121467 -0.00918064 0.00273676)
(0.108862 -0.00466429 0.00241389)
(0.0338443 -0.0046891 0.00313687)
(0.0774102 -0.0133297 0.00412654)
(0.0959424 -0.0187582 0.00420767)
(0.102477 -0.0215518 0.00416387)
(0.106436 -0.022302 0.00397151)
(0.111182 -0.0228894 0.00365956)
(0.117349 -0.0216597 0.00358231)
(0.124141 -0.0195877 0.00334708)
(0.127738 -0.0132939 0.00338442)
(0.11774 -0.00621307 0.0032323)
(0.0237557 -0.00394997 0.00316233)
(0.0678926 -0.0140236 0.00460389)
(0.090743 -0.0218662 0.00521577)
(0.100103 -0.0265359 0.00532673)
(0.105355 -0.0285167 0.00505182)
(0.111264 -0.0297846 0.00462313)
(0.119171 -0.029267 0.00443442)
(0.128661 -0.027183 0.00422029)
(0.136308 -0.0196854 0.00435275)
(0.130454 -0.00898009 0.00443848)
(0.0144112 -0.00191409 0.00321909)
(0.056116 -0.0132331 0.005083)
(0.0826983 -0.0240869 0.00646626)
(0.0958869 -0.031902 0.00692212)
(0.103188 -0.0361696 0.00657273)
(0.110469 -0.0388433 0.0059388)
(0.120412 -0.0397471 0.00557141)
(0.133566 -0.0385835 0.00536947)
(0.147448 -0.030336 0.00572794)
(0.151204 -0.0134476 0.00617108)
(0.00828985 -0.000342434 0.00336748)
(0.0424679 -0.0108595 0.00587765)
(0.0708013 -0.0241533 0.00805284)
(0.0885592 -0.0362841 0.00905984)
(0.0993015 -0.0447605 0.00866418)
(0.108566 -0.0505167 0.00768653)
(0.120734 -0.0541702 0.00701003)
(0.138715 -0.055815 0.00676702)
(0.161638 -0.0491827 0.00758026)
(0.182621 -0.025467 0.00867576)
(0.00517763 -0.00254292 0.000579569)
(0.0293753 -0.0109981 0.00483873)
(0.0559452 -0.0243834 0.00820057)
(0.0765186 -0.038941 0.0100776)
(0.0910723 -0.0520543 0.0101493)
(0.103352 -0.0632644 0.00907991)
(0.117034 -0.0734098 0.00803001)
(0.14113 -0.0808772 0.00763462)
(0.17023 -0.0899375 0.00896526)
(0.248952 -0.0417814 0.0118706)
(0.09596 -0.0110124 0.00134184)
(0.10089 -0.00141564 0.00119623)
(0.100633 -0.00114172 0.00113622)
(0.100398 -0.000448845 0.00115106)
(0.100358 -0.000109538 0.00115648)
(0.100358 9.77117e-05 0.00115642)
(0.100399 0.000437224 0.00115087)
(0.100637 0.00112892 0.00113625)
(0.100897 0.00140162 0.00119866)
(0.0959772 0.0109867 0.00134131)
(0.0937527 -0.00583522 0.00196401)
(0.106145 -0.00252033 0.00198035)
(0.103644 -0.00191949 0.00190092)
(0.102476 -0.000788053 0.0019502)
(0.102243 -0.000242224 0.00196183)
(0.102243 0.000194019 0.00196198)
(0.102476 0.000740823 0.00195048)
(0.103637 0.00187237 0.00190128)
(0.106146 0.0024916 0.00198177)
(0.093783 0.00575364 0.00196166)
(0.091821 -0.000594832 0.00163583)
(0.109318 -0.00288753 0.00168485)
(0.106014 -0.00162264 0.00159001)
(0.104386 -0.000649251 0.00163465)
(0.104038 -0.00027368 0.00164487)
(0.104041 0.00019015 0.00164497)
(0.104391 0.00056931 0.00163493)
(0.106012 0.00155002 0.00159032)
(0.10932 0.0028475 0.00168484)
(0.0919065 0.000530386 0.00163561)
(0.0899745 0.00224415 0.00114608)
(0.110135 -0.00315174 0.00117005)
(0.107027 -0.00111019 0.00106137)
(0.105444 -0.000500253 0.00109017)
(0.105095 -0.000293171 0.00110082)
(0.105101 0.000173142 0.00110082)
(0.105459 0.000388164 0.00108999)
(0.107037 0.00100923 0.00106129)
(0.11017 0.00308032 0.00116807)
(0.09011 -0.00230591 0.00114927)
(0.0888781 0.0035302 0.000736262)
(0.110062 -0.00330833 0.00071575)
(0.107516 -0.000667382 0.000598148)
(0.106078 -0.000498571 0.000620657)
(0.105724 -0.000328873 0.000637373)
(0.105734 0.000163627 0.00063747)
(0.106107 0.000347192 0.000620152)
(0.107541 0.000529172 0.000597296)
(0.110124 0.00320568 0.000711603)
(0.0890931 -0.00359682 0.000742065)
(0.0883744 0.00402137 0.000406348)
(0.10992 -0.00332074 0.000336889)
(0.108055 -0.000290307 0.000195395)
(0.106693 -0.000570181 0.000218509)
(0.10629 -0.000351053 0.00023816)
(0.106307 0.000128697 0.000238834)
(0.106742 0.000369228 0.000217457)
(0.108103 0.000103553 0.000192493)
(0.110017 0.0031799 0.000331199)
(0.0886963 -0.00409896 0.00041405)
(0.0880846 0.00410775 0.000149004)
(0.109774 -0.00325329 3.42128e-05)
(0.108636 1.86852e-05 -0.000147396)
(0.107314 -0.000658505 -0.000117786)
(0.106855 -0.000346588 -0.000104154)
(0.106882 5.05788e-05 -0.00010339)
(0.107388 0.000396234 -0.000119825)
(0.108713 -0.000268454 -0.000151961)
(0.109917 0.00307084 2.63016e-05)
(0.0885466 -0.0042095 0.00015726)
(0.0878196 0.00399721 -4.35968e-05)
(0.109575 -0.00316183 -0.000186916)
(0.109153 0.000241039 -0.000413401)
(0.107865 -0.00076201 -0.000370018)
(0.107375 -0.000327183 -0.000369135)
(0.107411 -6.37673e-05 -0.000370457)
(0.107971 0.000421124 -0.000372584)
(0.109274 -0.000573115 -0.000417634)
(0.109778 0.00292537 -0.000197391)
(0.0884634 -0.00413014 -3.4259e-05)
(0.0875516 0.00379545 -0.000192863)
(0.109345 -0.00306111 -0.000323691)
(0.109595 0.000374993 -0.000602238)
(0.108331 -0.000886365 -0.000542114)
(0.107831 -0.000308336 -0.000558469)
(0.107879 -0.000204625 -0.00056246)
(0.10848 0.000440229 -0.000544113)
(0.109778 -0.000815891 -0.000606449)
(0.109647 0.00275492 -0.000338053)
(0.0884104 -0.00396845 -0.000182105)
(0.0872755 0.00354796 -0.000301402)
(0.10912 -0.00295917 -0.000390376)
(0.10999 0.000438841 -0.000736739)
(0.108738 -0.00102712 -0.000656265)
(0.108241 -0.000301003 -0.000692373)
(0.108306 -0.000369569 -0.000698184)
(0.108943 0.00044174 -0.000656098)
(0.110252 -0.00102098 -0.000742909)
(0.109565 0.00256733 -0.000408681)
(0.0884042 -0.00377506 -0.000291198)
(0.0869659 0.0032731 -0.00036247)
(0.108898 -0.0028744 -0.00042341)
(0.110343 0.000448567 -0.000838528)
(0.109103 -0.00117989 -0.000732489)
(0.108619 -0.000314704 -0.000788199)
(0.108708 -0.000560886 -0.00079503)
(0.109379 0.000412621 -0.000729005)
(0.110708 -0.00121147 -0.000849152)
(0.109533 0.0023687 -0.000444785)
(0.0884451 -0.00357143 -0.000354332)
(0.0865928 0.00298864 -0.00039149)
(0.108667 -0.002816 -0.000441186)
(0.110646 0.000402348 -0.000911166)
(0.109428 -0.00135198 -0.000781577)
(0.108971 -0.000361174 -0.000855863)
(0.109092 -0.000781067 -0.000862803)
(0.109795 0.000346031 -0.000774878)
(0.111146 -0.00139818 -0.000929512)
(0.109554 0.00216225 -0.00046847)
(0.0885285 -0.00337843 -0.000385059)
(0.0861206 0.00269956 -0.000406533)
(0.108422 -0.0027959 -0.000441435)
(0.110899 0.000294842 -0.000956222)
(0.109714 -0.00155327 -0.000809076)
(0.109298 -0.000454183 -0.000901112)
(0.10946 -0.00103432 -0.000908471)
(0.110199 0.000236423 -0.000799548)
(0.111579 -0.00158662 -0.000985086)
(0.109629 0.00194473 -0.000476452)
(0.0886625 -0.0032105 -0.000402019)
(0.0855236 0.0023965 -0.000410786)
(0.108155 -0.00282491 -0.00042627)
(0.111097 0.0001217 -0.000979839)
(0.109964 -0.00179357 -0.000819841)
(0.109602 -0.000608449 -0.000928489)
(0.109816 -0.00132909 -0.000937493)
(0.110601 7.35747e-05 -0.000808213)
(0.112022 -0.00178959 -0.00102153)
(0.109768 0.00171145 -0.000471568)
(0.0888679 -0.00307048 -0.000409069)
(0.0847607 0.00207572 -0.000403172)
(0.107856 -0.00291134 -0.000399202)
(0.111236 -0.000127246 -0.000985512)
(0.11018 -0.00208976 -0.000817548)
(0.109886 -0.000841118 -0.0009409)
(0.110168 -0.00167843 -0.000953541)
(0.111012 -0.000157348 -0.000805159)
(0.11249 -0.00202282 -0.00104409)
(0.10998 0.00145383 -0.000458154)
(0.0891705 -0.00295603 -0.000402964)
(0.0837876 0.00172693 -0.000380982)
(0.107504 -0.00306627 -0.000360408)
(0.11131 -0.000468929 -0.000973745)
(0.110365 -0.00246156 -0.000804087)
(0.110154 -0.00117279 -0.000939489)
(0.110524 -0.00209988 -0.000958126)
(0.111447 -0.00047482 -0.000792655)
(0.112998 -0.00230394 -0.00105515)
(0.110282 0.00115924 -0.000439039)
(0.0895999 -0.00286654 -0.000382252)
(0.0825409 0.00133871 -0.000341527)
(0.10708 -0.00330809 -0.000307954)
(0.111314 -0.000926316 -0.000943027)
(0.110516 -0.00293288 -0.000778885)
(0.11041 -0.00162934 -0.000923656)
(0.110893 -0.00261695 -0.000951305)
(0.11192 -0.000900841 -0.000771304)
(0.113567 -0.00265312 -0.00105443)
(0.110701 0.000811675 -0.000415408)
(0.0901914 -0.00280486 -0.000347745)
(0.0809536 0.000896352 -0.000278758)
(0.106548 -0.00365548 -0.000237455)
(0.111236 -0.00152971 -0.000889655)
(0.110633 -0.00353377 -0.000739525)
(0.110656 -0.00224349 -0.000891049)
(0.111284 -0.00325985 -0.000931319)
(0.112448 -0.00146483 -0.000740576)
(0.114223 -0.003096 -0.00104076)
(0.111274 0.000392251 -0.000386549)
(0.0909893 -0.00277716 -0.000299099)
(0.0789297 0.000388285 -0.000184322)
(0.105877 -0.00413379 -0.000142212)
(0.111065 -0.00231585 -0.00080683)
(0.110713 -0.00430193 -0.000680932)
(0.110898 -0.00305573 -0.000837657)
(0.111712 -0.00406761 -0.000894887)
(0.113055 -0.00220572 -0.00069762)
(0.114999 -0.00366461 -0.00101191)
(0.112051 -0.000122982 -0.0003507)
(0.0920538 -0.0027897 -0.000234185)
(0.0763713 -0.00019809 -4.68052e-05)
(0.105007 -0.00476905 -9.39929e-06)
(0.11079 -0.00332953 -0.000682851)
(0.110752 -0.00528421 -0.000594696)
(0.111138 -0.00411672 -0.000756779)
(0.112188 -0.00509116 -0.00083617)
(0.113767 -0.00317395 -0.000638157)
(0.115937 -0.00440208 -0.000963892)
(0.113096 -0.000765949 -0.000303397)
(0.0934652 -0.00285454 -0.000148445)
(0.0731584 -0.000861773 0.000154338)
(0.103866 -0.00559316 0.000179052)
(0.110396 -0.00462612 -0.000502686)
(0.110747 -0.00653722 -0.000468274)
(0.111382 -0.00548822 -0.00063844)
(0.112729 -0.00639578 -0.0007463)
(0.114616 -0.00443619 -0.000555282)
(0.11709 -0.00536832 -0.000889919)
(0.114497 -0.00158122 -0.000238234)
(0.0953338 -0.00298638 -3.44634e-05)
(0.0691972 -0.00159382 0.00044942)
(0.102329 -0.00663121 0.000450441)
(0.109858 -0.00626339 -0.000247921)
(0.110691 -0.00812861 -0.000284846)
(0.11163 -0.00724407 -0.000468214)
(0.113348 -0.00806592 -0.000611915)
(0.115639 -0.00608288 -0.000436869)
(0.118527 -0.00664803 -0.000778737)
(0.116366 -0.00263247 -0.000144918)
(0.0978105 -0.00321244 0.000119196)
(0.0644015 -0.00236249 0.000871823)
(0.100247 -0.00789517 0.000838002)
(0.109139 -0.00828976 0.000105488)
(0.110573 -0.010135 -2.08592e-05)
(0.111875 -0.00947152 -0.000225476)
(0.114052 -0.0102116 -0.00041353)
(0.116877 -0.00823675 -0.000266983)
(0.120336 -0.00836422 -0.000615058)
(0.118861 -0.00401679 -9.23332e-06)
(0.101112 -0.00357 0.000328883)
(0.0587671 -0.00311991 0.00144071)
(0.0974113 -0.00934384 0.00137844)
(0.108168 -0.0107245 0.000592668)
(0.110371 -0.0126385 0.000357057)
(0.112098 -0.0122734 0.000118157)
(0.114833 -0.0129763 -0.000125687)
(0.118362 -0.0110704 -2.39955e-05)