/*--------------------------------*- C++ -*----------------------------------*\
| =========                 |                                                 |
| \\      /  F ield         | OpenFOAM: The Open Source CFD Toolbox           |
|  \\    /   O peration     | Version:  4.1                                   |
|   \\  /    A nd           | Web:      www.OpenFOAM.org                      |
|    \\/     M anipulation  |                                                 |
\*---------------------------------------------------------------------------*/
FoamFile
{
    version     2.0;
    format      ascii;
    class       volScalarField;
    location    "40";
    object      T;
}
// * * * * * * * * * * * * * * * * * * * * * * * * * * * * * * * * * * * * * //

dimensions      [0 0 0 1 0 0 0];

internalField   nonuniform List<scalar> 
12000
(
0.999583
1.00358
0.999807
1.00054
1.00055
1.00055
1.00053
0.999806
1.00359
0.999558
0.994978
0.996273
0.995539
0.99699
0.997021
0.997013
0.996978
0.995538
0.996306
0.994932
0.999369
0.994199
0.997394
0.998254
0.998156
0.998155
0.998248
0.997411
0.994229
0.999299
1.00384
0.995566
1.00083
1.00049
1.00028
1.00026
1.00049
1.00085
0.995554
1.00374
1.00495
0.996274
1.00236
1.00117
1.00116
1.00106
1.00117
1.00238
0.996217
1.00481
1.00439
0.996197
1.00248
1.00083
1.00116
1.00105
1.00083
1.00247
0.996151
1.0042
1.00367
0.996226
1.00228
1.00033
1.00092
1.0009
1.00032
1.00224
0.996216
1.00345
1.00306
0.996486
1.00207
0.999926
1.00069
1.00073
0.999892
1.00202
0.99651
1.00281
1.00246
0.996766
1.00181
0.999556
1.00044
1.00052
0.999508
1.00173
0.996807
1.00219
1.00187
0.996971
1.00145
0.999189
1.00016
1.00025
0.999142
1.00137
0.997015
1.00155
1.00133
0.997063
1.00105
0.998865
0.999864
0.999963
0.998796
1.00097
0.997119
1.00096
1.00083
0.997062
1.00064
0.998572
0.999556
0.999668
0.998473
1.00057
0.997131
1.00042
1.00036
0.996995
1.00019
0.998264
0.999216
0.99934
0.998158
1.00015
0.997051
0.999907
0.999849
0.996789
0.999664
0.997893
0.998804
0.998941
0.997796
0.999649
0.99685
0.999333
0.99922
0.99639
0.99902
0.997403
0.998274
0.998426
0.997332
0.999048
0.996486
0.998643
0.998396
0.995734
0.998164
0.996721
0.997558
0.997737
0.996704
0.998279
0.995916
0.997783
0.997257
0.994721
0.996994
0.995758
0.996579
0.9968
0.995837
0.99728
0.995072
0.996685
0.995628
0.993219
0.995372
0.994391
0.995232
0.995523
0.994647
0.99597
0.99388
0.99527
0.993255
0.991053
0.993102
0.992464
0.993387
0.993795
0.993037
0.994262
0.992254
0.993448
0.989766
0.987972
0.989925
0.989767
0.990873
0.991479
0.990881
0.992057
0.990096
0.991114
0.984571
0.983555
0.985465
0.985995
0.987451
0.98839
0.988028
0.989226
0.987291
0.988147
0.976772
0.977141
0.979204
0.980714
0.982793
0.984272
0.98429
0.985606
0.983703
0.984398
0.965063
0.967723
0.970378
0.973283
0.976407
0.978755
0.97941
0.981002
0.979164
0.97968
0.947645
0.953732
0.9579
0.962766
0.967537
0.971276
0.973002
0.975162
0.973468
0.973736
0.922229
0.932774
0.940057
0.947721
0.954985
0.960941
0.964479
0.96775
0.966356
0.966097
0.885831
0.901559
0.914328
0.926022
0.936882
0.94625
0.952783
0.958176
0.957553
0.956168
0.833646
0.855739
0.876987
0.894504
0.910482
0.924931
0.936288
0.945642
0.947166
0.942289
0.77159
0.799192
0.826722
0.850114
0.872212
0.89319
0.911457
0.927493
0.936224
0.925575
0.700515
0.729421
0.760818
0.789742
0.818821
0.847502
0.875286
0.900841
0.929857
0.905641
0.613001
0.637106
0.672956
0.709172
0.74437
0.778004
0.814196
0.84605
0.926688
0.937101
1.00359
1.00675
1.00301
1.00391
1.00387
1.00387
1.00391
1.00301
1.00679
1.00354
0.996297
0.996862
0.996391
0.998264
0.99822
0.998218
0.99825
0.996387
0.996958
0.996239
0.994232
0.989738
0.992954
0.993841
0.993637
0.993627
0.993823
0.992968
0.989823
0.994128
0.995611
0.987821
0.993443
0.992811
0.992446
0.992445
0.99279
0.993469
0.987903
0.995462
0.996329
0.987423
0.994329
0.992665
0.992432
0.992491
0.992645
0.994353
0.987525
0.99614
0.996267
0.987498
0.994635
0.992441
0.99261
0.992692
0.992413
0.994649
0.987574
0.996078
0.996318
0.988151
0.994857
0.992393
0.993005
0.993052
0.992356
0.994857
0.988177
0.996146
0.996609
0.98927
0.995293
0.992679
0.993618
0.993637
0.99263
0.995264
0.989238
0.996434
0.99693
0.99048
0.995794
0.99316
0.994294
0.994307
0.993094
0.995749
0.990406
0.996721
0.997188
0.991528
0.996212
0.99366
0.994889
0.994913
0.993571
0.996147
0.991437
0.996902
0.997347
0.992407
0.996519
0.994095
0.995357
0.995396
0.993997
0.996431
0.992301
0.996973
0.997427
0.993132
0.996712
0.994455
0.995697
0.995754
0.994356
0.996609
0.993003
0.996961
0.997467
0.993635
0.996787
0.994723
0.995904
0.995981
0.994616
0.996679
0.993505
0.996866
0.997389
0.993913
0.996726
0.994864
0.995959
0.996061
0.994749
0.996625
0.993795
0.996648
0.997137
0.993945
0.996466
0.994825
0.995828
0.995961
0.994718
0.996404
0.993844
0.996289
0.996641
0.993673
0.995957
0.994547
0.995465
0.995636
0.994472
0.995976
0.993607
0.995745
0.995781
0.993024
0.995114
0.99395
0.994804
0.995026
0.993954
0.995293
0.993055
0.994918
0.994384
0.991879
0.993817
0.992925
0.993754
0.994053
0.993083
0.994284
0.992127
0.993721
0.992217
0.99005
0.991884
0.991325
0.992192
0.992608
0.991762
0.992858
0.990737
0.992066
0.988942
0.987258
0.98906
0.988945
0.989953
0.990552
0.98987
0.990897
0.988783
0.989849
0.984005
0.983126
0.985009
0.985503
0.986813
0.987702
0.987258
0.988264
0.986137
0.986946
0.976593
0.97708
0.979264
0.980608
0.982458
0.983812
0.98373
0.984801
0.982649
0.9832
0.965627
0.96824
0.971142
0.973704
0.976449
0.978544
0.979035
0.980315
0.978141
0.978411
0.949607
0.955325
0.95968
0.963973
0.968128
0.971401
0.972822
0.974555
0.972389
0.972308
0.926477
0.936444
0.943449
0.950211
0.956505
0.96164
0.964588
0.967209
0.965127
0.964415
0.89351
0.908868
0.920343
0.930624
0.940043
0.948045
0.953478
0.957811
0.956098
0.954151
0.847424
0.868936
0.887282
0.902663
0.916552
0.928817
0.938205
0.945754
0.94537
0.939839
0.788226
0.815508
0.84161
0.863311
0.88292
0.900851
0.916003
0.929128
0.934261
0.922585
0.715529
0.747072
0.780494
0.809628
0.836166
0.860856
0.883996
0.905053
0.927194
0.900976
0.632067
0.662275
0.700054
0.736933
0.770764
0.801397
0.832725
0.859445
0.927684
0.924937
0.999819
1.00301
0.998896
0.999618
0.999577
0.999575
0.999614
0.998897
1.00306
0.999753
0.995569
0.996401
0.996
0.997901
0.997906
0.997899
0.997878
0.995983
0.996494
0.995499
0.997441
0.992969
0.996509
0.99754
0.997364
0.997351
0.997514
0.996528
0.993064
0.997306
1.00089
0.993459
0.99943
0.998782
0.998437
0.998429
0.998756
0.999458
0.99352
1.00074
1.00243
0.994345
1.00164
0.999828
0.999718
0.999726
0.9998
1.00166
0.99437
1.00228
1.00255
0.994651
1.00227
0.999931
1.00036
1.00036
0.9999
1.00229
0.994641
1.00239
1.00236
0.994871
1.00216
0.999563
1.0005
1.00048
0.999532
1.00216
0.994833
1.00219
1.00217
0.995296
1.00196
0.999218
1.0005
1.00047
0.99919
1.00195
0.995231
1.00198
1.00192
0.995789
1.00177
0.998997
1.00047
1.00045
0.998963
1.00175
0.995691
1.00172
1.00158
0.996196
1.00152
0.998817
1.00038
1.00038
0.998767
1.00148
0.996082
1.00135
1.00122
0.996487
1.00119
0.998623
1.0002
1.00022
0.998564
1.00115
0.996371
1.00093
1.00086
0.996661
1.00081
0.998415
0.999942
0.999989
0.998346
1.00076
0.996552
1.00049
1.00049
0.996701
1.00038
0.998178
0.99962
0.999693
0.998101
1.00032
0.99662
1.00003
1.00005
0.996599
0.999867
0.997878
0.999212
0.999315
0.997798
0.999822
0.996549
0.999504
0.999496
0.996304
0.999221
0.99746
0.998681
0.998817
0.997391
0.999217
0.996302
0.998871
0.998755
0.995753
0.99838
0.996861
0.997978
0.998152
0.996829
0.998468
0.995839
0.998069
0.997711
0.994871
0.997264
0.996002
0.997037
0.997262
0.996048
0.997521
0.995115
0.997035
0.996204
0.993547
0.995755
0.994778
0.995768
0.996065
0.994969
0.996302
0.994065
0.995684
0.994003
0.991608
0.993689
0.993046
0.994053
0.994458
0.993496
0.994719
0.992603
0.993929
0.990772
0.988804
0.990832
0.990613
0.991732
0.992305
0.991512
0.99266
0.99062
0.991673
0.986027
0.98478
0.986862
0.987216
0.988593
0.989434
0.98887
0.99
0.987994
0.988789
0.979035
0.979014
0.981344
0.982492
0.98435
0.985618
0.98539
0.986584
0.984582
0.985121
0.96878
0.970706
0.973661
0.975934
0.978599
0.98055
0.980844
0.98223
0.980218
0.980472
0.953814
0.958678
0.962941
0.966815
0.970761
0.973794
0.974922
0.976716
0.974693
0.974586
0.932293
0.941248
0.947922
0.954094
0.959988
0.964712
0.967203
0.969783
0.967768
0.967005
0.901982
0.916127
0.926792
0.936277
0.945016
0.952308
0.956991
0.961075
0.959241
0.957185
0.860531
0.880685
0.897234
0.911377
0.924121
0.935169
0.943307
0.950224
0.949329
0.943536
0.806977
0.832972
0.856797
0.876963
0.894893
0.910908
0.924035
0.935858
0.939677
0.927178
0.741402
0.77187
0.803418
0.830974
0.855225
0.877145
0.897255
0.916035
0.935698
0.907174
0.664479
0.696804
0.734977
0.770078
0.800616
0.827327
0.854451
0.877354
0.942297
0.933012
1.00055
1.00392
0.999619
1.00039
1.00036
1.00036
1.00039
0.999617
1.00397
1.00048
0.997022
0.998277
0.997905
1.00002
1.00004
1.00003
0.999994
0.997886
0.998374
0.99695
0.998311
0.993859
0.997547
0.99883
0.99865
0.998635
0.998801
0.997567
0.993954
0.998162
1.00057
0.992826
0.998785
0.998231
0.997843
0.997831
0.998206
0.998813
0.992875
1.00041
1.00125
0.992694
0.999833
0.997954
0.997787
0.997783
0.997931
0.999856
0.992709
1.00108
1.00091
0.992472
0.999928
0.997405
0.99777
0.997776
0.997379
0.999943
0.992492
1.0007
1.00044
0.992401
0.999553
0.996691
0.997559
0.997572
0.996661
0.999549
0.992423
1.0002
1.00003
0.99267
0.999207
0.99614
0.997342
0.997364
0.996106
0.999181
0.992662
0.999803
0.999673
0.993128
0.998982
0.995845
0.997236
0.997272
0.995801
0.998941
0.993098
0.999423
0.999336
0.993601
0.998794
0.995718
0.997197
0.997251
0.995657
0.99874
0.993566
0.999031
0.999042
0.994016
0.998598
0.995667
0.99716
0.997233
0.995585
0.998531
0.993986
0.998659
0.998783
0.994362
0.998386
0.995653
0.997099
0.997193
0.995551
0.998316
0.994338
0.998305
0.998536
0.994609
0.998143
0.99564
0.996999
0.997117
0.995524
0.998082
0.99459
0.997953
0.998246
0.994722
0.997833
0.995578
0.996832
0.996976
0.995456
0.997791
0.994702
0.997573
0.997851
0.994651
0.997399
0.995409
0.99655
0.996725
0.995292
0.997398
0.994638
0.997106
0.997264
0.994333
0.996779
0.995063
0.996096
0.996308
0.994972
0.996857
0.994362
0.996475
0.996376
0.993687
0.995885
0.994458
0.995402
0.995661
0.994429
0.996111
0.993825
0.995606
0.995037
0.992593
0.994596
0.993486
0.994377
0.994702
0.993583
0.995084
0.992951
0.994424
0.993032
0.990887
0.992752
0.992008
0.992903
0.993327
0.992338
0.993687
0.991653
0.99284
0.990048
0.98834
0.990135
0.989837
0.990828
0.991407
0.990579
0.991814
0.989832
0.990747
0.985628
0.984622
0.986447
0.986723
0.98795
0.988777
0.988168
0.989343
0.987368
0.988023
0.979094
0.979245
0.981288
0.982333
0.984006
0.985225
0.984933
0.986127
0.984125
0.984522
0.969519
0.971486
0.974094
0.9762
0.97863
0.980476
0.980667
0.982
0.979945
0.980057
0.955584
0.96028
0.964084
0.967677
0.971309
0.974143
0.975104
0.976771
0.974645
0.974393
0.9356
0.944103
0.950128
0.955858
0.961315
0.96569
0.967894
0.970248
0.968034
0.967118
0.907527
0.920924
0.930655
0.939479
0.947589
0.954293
0.958481
0.962178
0.959996
0.957745
0.869229
0.888403
0.903656
0.916882
0.928713
0.938798
0.946087
0.952369
0.950907
0.944846
0.819243
0.844351
0.866775
0.885865
0.90252
0.917055
0.928799
0.939608
0.942557
0.929505
0.756999
0.787188
0.817793
0.84421
0.866748
0.886553
0.904641
0.921949
0.940581
0.911321
0.682742
0.715936
0.754142
0.787771
0.815684
0.839386
0.863864
0.884712
0.949078
0.93827
1.00057
1.00387
0.999579
1.00036
1.00032
1.00032
1.00035
0.999575
1.00393
1.0005
0.997054
0.998237
0.997915
1.00005
1.00006
1.00005
1.00002
0.997894
0.998341
0.996982
0.998219
0.993662
0.99738
0.998661
0.998455
0.998439
0.998627
0.997399
0.993762
0.998074
1.00034
0.992501
0.998465
0.99786
0.997431
0.997418
0.997831
0.998489
0.992542
1.00018
1.00115
0.992554
0.999759
0.997813
0.99761
0.997603
0.997785
0.999775
0.992557
1.00099
1.00114
0.992755
1.00038
0.997805
0.998166
0.998166
0.997775
1.00038
0.992752
1.00094
1.00096
0.993125
1.00051
0.997605
0.99851
0.998515
0.99757
1.00048
0.993099
1.00076
1.00078
0.993706
1.00049
0.997403
0.998673
0.998688
0.997358
1.00045
0.993642
1.00059
1.00059
0.994344
1.00045
0.997312
0.998795
0.998826
0.997255
1.0004
0.994266
1.00037
1.00037
0.994907
1.00035
0.997288
0.998878
0.998927
0.997214
1.0003
0.994832
1.00009
1.00015
0.995345
1.00016
0.997264
0.998878
0.99895
0.99717
1.00012
0.995289
0.999777
0.999908
0.995661
0.999912
0.997215
0.998788
0.998884
0.997103
0.999879
0.995618
0.999445
0.999637
0.995847
0.999597
0.997128
0.998616
0.998736
0.997002
0.999578
0.995803
0.9991
0.999299
0.995882
0.999196
0.996973
0.99835
0.9985
0.996842
0.999198
0.99584
0.998688
0.998846
0.995722
0.998662
0.996699
0.99796
0.998143
0.996576
0.998708
0.995703
0.99816
0.998202
0.99531
0.997936
0.996244
0.997394
0.997615
0.996152
0.998067
0.995355
0.997461
0.997263
0.994571
0.996937
0.995531
0.996588
0.996858
0.995507
0.997221
0.994745
0.99653
0.995878
0.993391
0.995553
0.994459
0.995456
0.995793
0.994564
0.9961
0.993805
0.995291
0.99384
0.991617
0.993631
0.992893
0.993885
0.994322
0.993234
0.99462
0.992452
0.993656
0.990844
0.989028
0.990959
0.990656
0.991729
0.99232
0.991402
0.992679
0.990586
0.991524
0.986458
0.985308
0.987254
0.987509
0.988796
0.989627
0.988934
0.990153
0.988094
0.988774
0.980043
0.979995
0.982126
0.983127
0.984829
0.986041
0.985665
0.986902
0.98484
0.985263
0.970713
0.972398
0.975031
0.977065
0.97948
0.981297
0.981397
0.982767
0.980669
0.98081
0.957206
0.961501
0.965221
0.968704
0.972263
0.97503
0.975878
0.977567
0.975408
0.975184
0.937892
0.945852
0.951623
0.957184
0.962496
0.966739
0.968783
0.971126
0.968877
0.967985
0.910781
0.923508
0.932748
0.941307
0.949181
0.955652
0.959593
0.96322
0.96098
0.958737
0.873699
0.892165
0.906667
0.919484
0.930955
0.940661
0.947566
0.953671
0.952103
0.945992
0.824824
0.849418
0.870996
0.889531
0.905668
0.919635
0.930811
0.941277
0.944028
0.930794
0.763227
0.793338
0.823314
0.849086
0.870933
0.889983
0.907319
0.924058
0.942388
0.912527
0.68955
0.722996
0.761017
0.793913
0.82089
0.84363
0.867239
0.887236
0.951349
0.939563
1.00057
1.00387
0.999579
1.00036
1.00032
1.00032
1.00035
0.999575
1.00393
1.0005
0.997053
0.998236
0.997914
1.00005
1.00005
1.00004
1.00002
0.997895
0.998338
0.996979
0.99822
0.993659
0.997377
0.998657
0.998449
0.998435
0.998625
0.997398
0.993758
0.998071
1.00035
0.992494
0.998463
0.997857
0.997426
0.997412
0.997828
0.998486
0.992538
1.00018
1.00116
0.992545
0.99976
0.997811
0.997607
0.997597
0.997783
0.999775
0.992556
1.00098
1.00115
0.992747
1.00039
0.997804
0.998164
0.99816
0.997774
1.00039
0.99275
1.00094
1.00099
0.993105
1.0005
0.997601
0.998506
0.99851
0.997569
1.00048
0.993094
1.00076
1.00083
0.993673
1.00048
0.997394
0.998667
0.998683
0.997354
1.00045
0.993635
1.0006
1.00063
0.994318
1.00045
0.9973
0.998789
0.998821
0.997249
1.0004
0.994266
1.00036
1.00038
0.994895
1.00036
0.997276
0.998872
0.998923
0.997209
1.0003
0.994844
1.00007
1.00013
0.995343
1.00018
0.997252
0.998872
0.998945
0.997166
1.00012
0.995301
0.999754
0.999888
0.995659
0.999925
0.997202
0.99878
0.998878
0.997098
0.99987
0.995624
0.999433
0.999611
0.995846
0.999606
0.997114
0.998605
0.99873
0.996995
0.999563
0.995805
0.9991
0.99927
0.995878
0.999199
0.996957
0.998337
0.998491
0.99683
0.999174
0.995835
0.998704
0.998816
0.995711
0.99866
0.99668
0.997943
0.998129
0.996558
0.998677
0.995694
0.99818
0.998165
0.995293
0.997927
0.996222
0.997373
0.997597
0.996128
0.998034
0.995344
0.99747
0.997214
0.994546
0.996919
0.995503
0.996562
0.996833
0.995478
0.997186
0.994734
0.996522
0.995818
0.993357
0.995525
0.994423
0.995421
0.99576
0.994531
0.99606
0.99379
0.995272
0.993765
0.99157
0.993588
0.992847
0.993839
0.994279
0.993192
0.994571
0.992429
0.99363
0.990752
0.988963
0.990899
0.990596
0.99167
0.992263
0.991351
0.992618
0.990552
0.991492
0.986343
0.985217
0.987168
0.987428
0.988719
0.989554
0.98887
0.990077
0.988042
0.988732
0.979888
0.979867
0.982006
0.983018
0.984726
0.985944
0.985582
0.986804
0.984765
0.985205
0.970492
0.972217
0.974864
0.976915
0.979339
0.981161
0.981282
0.982636
0.980562
0.980729
0.956877
0.961238
0.964987
0.968491
0.972063
0.974839
0.975714
0.977393
0.975253
0.975068
0.937406
0.945463
0.951291
0.956877
0.962208
0.966468
0.968548
0.970889
0.968658
0.967812
0.910098
0.922938
0.932272
0.94087
0.94877
0.955266
0.959251
0.962888
0.960676
0.958486
0.872835
0.891386
0.906004
0.918873
0.930373
0.94011
0.94707
0.953195
0.951672
0.945623
0.823866
0.848453
0.870131
0.888721
0.904886
0.918887
0.93013
0.940634
0.943459
0.930332
0.762347
0.792285
0.822241
0.848031
0.86989
0.888958
0.906353
0.923139
0.941543
0.911838
0.688627
0.721885
0.759828
0.792739
0.819738
0.842506
0.866179
0.886268
0.950482
0.939036
1.00055
1.00391
0.999617
1.00039
1.00036
1.00035
1.00039
0.999613
1.00397
1.00048
0.997021
0.998268
0.997893
1.00001
1.00003
1.00002
0.999978
0.99787
0.998365
0.996938
0.998306
0.993854
0.997539
0.99882
0.998634
0.998621
0.998788
0.997556
0.993944
0.998164
1.00059
0.992815
0.998783
0.998228
0.997833
0.997821
0.998204
0.998813
0.992865
1.00042
1.00132
0.992647
0.999834
0.997954
0.997785
0.997777
0.997935
0.99986
0.992696
1.0011
1.00098
0.992417
0.999943
0.997405
0.997775
0.997771
0.997384
0.999941
0.992443
1.00077
1.00045
0.992369
0.99958
0.996689
0.997568
0.99757
0.996662
0.999548
0.992351
1.00027
1.00001
0.992657
0.99924
0.996138
0.997353
0.997366
0.9961
0.999188
0.992602
0.999832
0.999639
0.99313
0.999013
0.995843
0.997249
0.997277
0.995791
0.99895
0.993051
0.999422
0.999294
0.993609
0.99882
0.99571
0.997209
0.997255
0.995642
0.998752
0.993523
0.999021
0.998998
0.994029
0.998615
0.995657
0.997168
0.997234
0.99557
0.99855
0.993944
0.99864
0.998746
0.994377
0.998395
0.995641
0.997103
0.997193
0.995534
0.998339
0.994294
0.998281
0.998497
0.994626
0.998146
0.995626
0.996998
0.997115
0.995502
0.998111
0.994547
0.997922
0.998202
0.994736
0.99783
0.995564
0.996826
0.99697
0.99543
0.997826
0.994665
0.997525
0.997802
0.994657
0.997386
0.99539
0.996538
0.996714
0.995261
0.997432
0.994608
0.997045
0.997206
0.994329
0.996751
0.995036
0.996076
0.996291
0.994933
0.996884
0.994335
0.996405
0.996303
0.993668
0.995839
0.994419
0.995373
0.995637
0.994383
0.996127
0.993795
0.995526
0.99494
0.992552
0.994531
0.993432
0.994333
0.994668
0.99353
0.995086
0.992917
0.994335
0.992897
0.990817
0.992664
0.991933
0.99284
0.99328
0.992275
0.993671
0.991613
0.992747
0.989854
0.988225
0.990013
0.989734
0.99074
0.99134
0.990504
0.991778
0.989779
0.990648
0.985346
0.984436
0.986275
0.986579
0.987826
0.98868
0.988072
0.989281
0.987298
0.987908
0.978683
0.978953
0.981041
0.982127
0.983827
0.985081
0.984801
0.986026
0.984024
0.984381
0.968907
0.97103
0.973727
0.975895
0.978363
0.980253
0.980475
0.98184
0.979796
0.979875
0.954665
0.959565
0.963521
0.967212
0.9709
0.973794
0.974808
0.976521
0.974414
0.974147
0.934223
0.94298
0.949256
0.955138
0.960678
0.965138
0.967425
0.969849
0.967672
0.966757
0.905528
0.91922
0.929316
0.938365
0.946603
0.953428
0.957734
0.961544
0.959441
0.957209
0.866591
0.885997
0.901675
0.915199
0.927212
0.937461
0.944913
0.951348
0.950035
0.944008
0.816139
0.841277
0.864065
0.88348
0.900369
0.915117
0.927078
0.938089
0.941312
0.928416
0.753675
0.783521
0.814222
0.840898
0.863694
0.883736
0.902052
0.919549
0.938532
0.909482
0.679006
0.711792
0.749918
0.783789
0.812044
0.836083
0.860854
0.881964
0.94682
0.936981
0.999818
1.00301
0.998895
0.999618
0.999577
0.999575
0.999611
0.998892
1.00306
0.999752
0.99557
0.996398
0.995984
0.997884
0.997892
0.997884
0.997857
0.995965
0.996492
0.995493
0.997456
0.992982
0.996527
0.997558
0.997381
0.997371
0.997532
0.996549
0.993086
0.997326
1.00091
0.993459
0.999452
0.998801
0.998458
0.998449
0.998779
0.999483
0.993519
1.00076
1.00245
0.994326
1.00166
0.999838
0.999736
0.999726
0.999818
1.00167
0.994339
1.00231
1.00256
0.994619
1.00228
0.999922
1.00034
1.00034
0.999905
1.00229
0.9946
1.00242
1.00235
0.994833
1.00215
0.999538
1.00045
1.00045
0.999511
1.00216
0.994806
1.00217
1.00214
0.99526
1.00193
0.999188
1.00042
1.00044
0.999146
1.00193
0.995207
1.00195
1.00188
0.995754
1.00173
0.99896
1.00038
1.00041
0.998901
1.00171
0.995665
1.00168
1.00156
0.996159
1.00147
0.998777
1.00028
1.00033
0.998699
1.00144
0.996045
1.00132
1.00119
0.99645
1.00114
0.998588
1.0001
1.00017
0.998489
1.0011
0.996317
1.00091
1.00082
0.996624
1.00076
0.998385
0.999854
0.999935
0.998266
1.00072
0.996492
1.00047
1.00044
0.996661
1.00033
0.998153
0.999534
0.999637
0.998019
1.00029
0.996562
1.00001
1
0.996551
0.999813
0.997852
0.999126
0.999254
0.997716
0.999788
0.996493
0.999468
0.999446
0.996245
0.999158
0.997426
0.998595
0.998751
0.997309
0.999181
0.996249
0.99882
0.998681
0.995693
0.99831
0.996814
0.99789
0.998081
0.996744
0.998427
0.995789
0.998011
0.997599
0.994807
0.997184
0.99594
0.996943
0.997183
0.995957
0.997466
0.995065
0.996967
0.996057
0.993454
0.995653
0.994693
0.995661
0.995974
0.994871
0.996226
0.994008
0.99561
0.993797
0.991467
0.99355
0.992928
0.993923
0.994347
0.993386
0.99462
0.992531
0.993847
0.990479
0.988591
0.990638
0.990449
0.991566
0.992167
0.99138
0.992538
0.990527
0.991571
0.985594
0.984462
0.986589
0.986985
0.988372
0.989251
0.988704
0.989843
0.987872
0.98865
0.978387
0.978536
0.980943
0.982158
0.984037
0.98536
0.985164
0.986371
0.984411
0.984928
0.967795
0.969973
0.973059
0.975431
0.978142
0.980165
0.980516
0.981925
0.979966
0.980198
0.952315
0.957531
0.962012
0.966032
0.970062
0.973196
0.974421
0.976261
0.974305
0.974186
0.930023
0.939429
0.946454
0.95285
0.958885
0.963756
0.966403
0.969077
0.967159
0.9664
0.898581
0.913295
0.924498
0.934308
0.943266
0.950776
0.955699
0.959959
0.958285
0.956267
0.855823
0.876534
0.893773
0.90834
0.921398
0.932751
0.941228
0.948424
0.947811
0.942082
0.801199
0.827472
0.851996
0.872615
0.890901
0.907287
0.920849
0.933065
0.937372
0.925122
0.734286
0.764637
0.796776
0.824885
0.849567
0.871867
0.892407
0.911583
0.931943
0.903683
0.655952
0.687772
0.726275
0.762009
0.793235
0.82059
0.848282
0.871633
0.937467
0.930005
1.0036
1.00678
1.00306
1.00396
1.00392
1.00392
1.00396
1.00306
1.00684
1.00355
0.996317
0.996945
0.996475
0.998349
0.998309
0.998302
0.998331
0.996471
0.997069
0.996277
0.994237
0.989815
0.993039
0.993914
0.993709
0.993701
0.993898
0.99306
0.989938
0.994162
0.995604
0.987854
0.993475
0.99283
0.992479
0.992472
0.99281
0.993491
0.987907
0.995502
0.99632
0.987408
0.994315
0.992654
0.992486
0.992475
0.99263
0.99432
0.987406
0.996186
0.996254
0.987455
0.994588
0.992402
0.992656
0.992646
0.992391
0.994589
0.987399
0.996091
0.996301
0.988092
0.994792
0.992326
0.992997
0.993001
0.992323
0.994788
0.988003
0.996108
0.996586
0.989207
0.99522
0.9926
0.993564
0.993579
0.992579
0.995204
0.989093
0.996358
0.9969
0.990418
0.995721
0.993069
0.994212
0.994238
0.993026
0.995694
0.990284
0.996631
0.997129
0.991493
0.996144
0.993563
0.994798
0.994833
0.9935
0.996099
0.991332
0.996812
0.997272
0.992393
0.996448
0.994008
0.995267
0.995315
0.993928
0.996387
0.992194
0.996898
0.997372
0.993102
0.996631
0.994377
0.995607
0.995676
0.994279
0.996571
0.99288
0.996898
0.997416
0.993589
0.996695
0.994649
0.995811
0.995904
0.994536
0.996656
0.993388
0.996793
0.99732
0.993859
0.996623
0.994788
0.995859
0.995981
0.994667
0.996599
0.993694
0.996561
0.997045
0.993879
0.996356
0.994741
0.995721
0.995873
0.994629
0.996364
0.993748
0.996194
0.996509
0.993594
0.995835
0.994447
0.995346
0.995538
0.994375
0.995929
0.99351
0.995645
0.995586
0.992923
0.994972
0.993828
0.994667
0.994914
0.993843
0.99523
0.992954
0.994806
0.994128
0.991728
0.993636
0.99277
0.993591
0.993916
0.992953
0.994192
0.992017
0.993591
0.991885
0.989818
0.991636
0.991118
0.991988
0.992433
0.991602
0.992721
0.990609
0.991912
0.988497
0.986915
0.988721
0.988666
0.989688
0.990323
0.989667
0.990705
0.988622
0.989664
0.983393
0.982629
0.98454
0.985125
0.986461
0.987396
0.986991
0.988006
0.985928
0.986714
0.975724
0.976372
0.978612
0.980082
0.981976
0.98339
0.983369
0.984457
0.98237
0.982901
0.964363
0.967224
0.970223
0.972945
0.975768
0.977946
0.97853
0.979844
0.977759
0.978016
0.947708
0.953809
0.958349
0.962843
0.967127
0.970526
0.97209
0.973894
0.971851
0.971778
0.923512
0.934057
0.941435
0.948462
0.954969
0.960315
0.96349
0.966259
0.964354
0.963683
0.888684
0.904918
0.917198
0.927895
0.937651
0.946001
0.951789
0.956402
0.954967
0.953127
0.840567
0.862936
0.882448
0.898441
0.91283
0.92563
0.93556
0.943589
0.943696
0.938338
0.780284
0.808068
0.835104
0.857376
0.877486
0.896005
0.911856
0.925693
0.931696
0.920512
0.705397
0.737034
0.771263
0.801115
0.828288
0.853536
0.877392
0.899376
0.923096
0.897462
0.620211
0.649639
0.687271
0.724596
0.759296
0.790754
0.822949
0.850561
0.92108
0.921529
0.999563
1.00354
0.999752
1.00048
1.00049
1.00049
1.00047
0.99975
1.00356
0.999502
0.99494
0.996228
0.995481
0.996923
0.996953
0.996948
0.99691
0.995478
0.996281
0.994862
0.999321
0.994118
0.997295
0.998147
0.998048
0.998042
0.998135
0.997317
0.994176
0.999161
1.0038
0.995496
1.00074
1.0004
1.00017
1.00016
1.0004
1.00078
0.995534
1.00362
1.00492
0.996233
1.0023
1.00111
1.001
1.00101
1.00112
1.00234
0.996239
1.00476
1.00436
0.996188
1.00246
1.00082
1.00103
1.00104
1.00079
1.00247
0.996163
1.00422
1.00365
0.996245
1.0023
1.00036
1.00089
1.00089
1.00031
1.00227
0.996207
1.00351
1.00305
0.996524
1.00211
0.999966
1.00073
1.00073
0.999914
1.00205
0.996486
1.00289
1.00246
0.996817
1.00185
0.999606
1.00052
1.00053
0.999558
1.00176
0.996789
1.00226
1.00187
0.997003
1.0015
0.999246
1.00025
1.00028
0.999199
1.00139
0.997004
1.00161
1.00132
0.997083
1.0011
0.998905
0.99995
1
0.998852
1.00099
0.997122
1.00101
1.00082
0.997102
1.00069
0.998596
0.999638
0.999697
0.998537
1.00057
0.997142
1.00047
1.00034
0.997044
1.00024
0.99828
0.999295
0.999366
0.998218
1.00012
0.997049
0.999936
0.999825
0.996829
0.999708
0.997904
0.998881
0.998967
0.997849
0.999626
0.996836
0.99935
0.999191
0.996419
0.999046
0.997411
0.998342
0.998451
0.997375
0.999033
0.996472
0.998653
0.998353
0.995742
0.998175
0.996723
0.997614
0.997757
0.996734
0.998258
0.995898
0.997791
0.997185
0.994697
0.996983
0.995745
0.996616
0.996813
0.995854
0.997264
0.995048
0.996691
0.995512
0.993161
0.995324
0.994356
0.995247
0.995531
0.994654
0.995969
0.993848
0.995273
0.993065
0.990951
0.993005
0.992395
0.993373
0.993795
0.993032
0.994276
0.992216
0.993443
0.989442
0.987788
0.989742
0.989637
0.990812
0.991452
0.990855
0.992067
0.990047
0.991091
0.984012
0.983219
0.985143
0.985754
0.987312
0.988302
0.987963
0.989205
0.987216
0.98809
0.975806
0.976526
0.978659
0.980284
0.982515
0.984072
0.984144
0.985519
0.983577
0.984283
0.963423
0.966612
0.969461
0.972538
0.975868
0.978356
0.979114
0.980801
0.978949
0.979472
0.944914
0.951743
0.956346
0.961487
0.966533
0.970517
0.972437
0.97476
0.973102
0.973383
0.917827
0.929319
0.937429
0.945535
0.953177
0.959541
0.963435
0.966997
0.965747
0.965522
0.878386
0.895573
0.909894
0.922353
0.933777
0.943787
0.95092
0.956818
0.956533
0.955245
0.824343
0.847557
0.870241
0.888634
0.905366
0.92073
0.933032
0.943245
0.945516
0.940878
0.763148
0.791157
0.818264
0.841885
0.864673
0.886605
0.906034
0.923306
0.933429
0.923501
0.688692
0.717124
0.749038
0.778133
0.80782
0.837388
0.866433
0.893595
0.925378
0.902954
0.599261
0.620165
0.65506
0.692415
0.729121
0.764037
0.801219
0.834052
0.91836
0.934877
0.55353
0.57177
0.604169
0.642116
0.680124
0.715794
0.755826
0.786115
0.876911
0.920797
0.52377
0.539951
0.57087
0.608029
0.645694
0.681288
0.721877
0.753102
0.839439
0.923503
0.494105
0.508929
0.538492
0.573923
0.609928
0.643994
0.683318
0.716665
0.793618
0.909939
0.465001
0.478679
0.507085
0.540251
0.57366
0.605221
0.641553
0.675825
0.741827
0.868145
0.436763
0.449323
0.476615
0.507263
0.537704
0.566181
0.598367
0.63125
0.685582
0.807006
0.409584
0.420941
0.446993
0.474822
0.501891
0.526879
0.554566
0.58483
0.627819
0.736325
0.383558
0.393593
0.418082
0.442844
0.466325
0.48752
0.510444
0.537241
0.570872
0.662404
0.358691
0.367291
0.389808
0.411323
0.431132
0.448457
0.4667
0.489237
0.515375
0.588954
0.334932
0.342069
0.362214
0.380361
0.396345
0.409659
0.42316
0.44104
0.460835
0.51824
0.312264
0.317963
0.335367
0.349908
0.361577
0.3705
0.37926
0.392474
0.406783
0.450257
0.290637
0.29486
0.309107
0.319572
0.326587
0.331114
0.335629
0.344412
0.354093
0.385828
0.269879
0.272521
0.283112
0.289171
0.291773
0.292392
0.293325
0.29816
0.304016
0.326301
0.249765
0.250712
0.257367
0.259165
0.257907
0.255264
0.253287
0.254855
0.257651
0.272656
0.23011
0.229355
0.232177
0.230187
0.225693
0.220455
0.216263
0.215321
0.215784
0.225429
0.210847
0.208544
0.207887
0.202681
0.195597
0.188438
0.182684
0.179935
0.178674
0.184481
0.192077
0.188417
0.184728
0.176925
0.167897
0.159434
0.152669
0.148678
0.146144
0.149183
0.173889
0.169064
0.162856
0.153078
0.142713
0.133472
0.126119
0.121285
0.117781
0.11873
0.156305
0.150567
0.14238
0.131223
0.120066
0.110462
0.102822
0.0974223
0.0931902
0.0925627
0.139377
0.133008
0.123377
0.111386
0.0999132
0.0902694
0.0825817
0.0768446
0.0721171
0.0701709
0.123198
0.116468
0.105903
0.0935653
0.0821724
0.0727628
0.0651859
0.0592085
0.0541838
0.0512086
0.107885
0.101027
0.089994
0.077732
0.0667405
0.0577229
0.0503456
0.0443283
0.0392864
0.0356807
0.0935604
0.086756
0.0756667
0.0638199
0.0534643
0.0449366
0.0379397
0.0321641
0.0274088
0.0235903
0.0803345
0.0737161
0.0629103
0.0517475
0.0421568
0.0342725
0.0278596
0.0225946
0.0183729
0.0148008
0.0682893
0.0619496
0.0516882
0.041413
0.0326796
0.0255831
0.0199277
0.0153803
0.0118488
0.00884834
0.0574703
0.051475
0.0419493
0.032664
0.0248793
0.0186826
0.013903
0.0101694
0.00737227
0.00506606
0.0478869
0.0422815
0.0336218
0.025364
0.0185895
0.0133584
0.00948468
0.00655031
0.00444175
0.00279882
0.0395157
0.0343262
0.0266081
0.0193838
0.013639
0.00937203
0.00634584
0.00412313
0.00260424
0.0015069
0.0323012
0.0275449
0.0207744
0.0145796
0.00984115
0.00646895
0.00417622
0.00254597
0.00149473
0.000796934
0.0261624
0.0218686
0.0159993
0.0108
0.00699391
0.00440288
0.00271054
0.00155014
0.000845372
0.000415252
0.0210055
0.0172122
0.0121646
0.00789088
0.00491007
0.00296877
0.00174637
0.000941858
0.000478174
0.000215604
0.575206