/*--------------------------------*- C++ -*----------------------------------*\
| =========                 |                                                 |
| \\      /  F ield         | OpenFOAM: The Open Source CFD Toolbox           |
|  \\    /   O peration     | Version:  4.1                                   |
|   \\  /    A nd           | Web:      www.OpenFOAM.org                      |
|    \\/     M anipulation  |                                                 |
\*---------------------------------------------------------------------------*/
FoamFile
{
    version     2.0;
    format      ascii;
    class       volScalarField;
    location    "1800";
    object      epsilon;
}
// * * * * * * * * * * * * * * * * * * * * * * * * * * * * * * * * * * * * * //

dimensions      [0 2 -3 0 0 0 0];

internalField   nonuniform List<scalar> 
12000
(
0.319849
0.312277
0.310935
0.310639
0.310567
0.310568
0.310644
0.310941
0.312111
0.319655
0.0651323
0.063668
0.0626898
0.0622507
0.0621168
0.0621173
0.0622532
0.0627082
0.0637081
0.0652115
0.0176517
0.0176938
0.017332
0.0171027
0.0170174
0.0170178
0.0171033
0.0173348
0.017691
0.0176543
0.0061521
0.00629057
0.00620434
0.0061005
0.00605513
0.0060557
0.00610157
0.00620534
0.00629299
0.00615319
0.00263599
0.00273297
0.00272088
0.0026733
0.00264825
0.0026482
0.00267377
0.00272185
0.00272298
0.00263332
0.00132215
0.0013723
0.00139334
0.00137043
0.00135511
0.00135579
0.00137129
0.00139629
0.00138563
0.00132442
0.000749611
0.000786727
0.00080252
0.000789951
0.000780862
0.000780771
0.000790524
0.00080398
0.000782726
0.000750892
0.000465051
0.000490057
0.000505658
0.000497973
0.000492093
0.00049239
0.000499386
0.00050722
0.000491418
0.000467212
0.000309506
0.000327835
0.000341227
0.000336332
0.000332381
0.000332216
0.000336543
0.000342484
0.000331576
0.000312279
0.000217808
0.000233659
0.000242398
0.000240301
0.000237101
0.000237407
0.000240702
0.000244327
0.000236273
0.000220704
0.000160069
0.000173229
0.000181149
0.000179354
0.000177081
0.000177289
0.000179772
0.00018252
0.000175315
0.000163151
0.000121944
0.00013368
0.000140114
0.000138609
0.000136973
0.000137234
0.000139167
0.000141301
0.000134805
0.000125099
9.56061e-05
0.0001058
0.000111399
0.00011036
0.000109199
0.000109383
0.000110932
0.000112554
0.000106867
9.89088e-05
7.67714e-05
8.57155e-05
9.07885e-05
9.00949e-05
8.91786e-05
8.94627e-05
9.07339e-05
9.192e-05
8.69195e-05
8.02794e-05
6.28854e-05
7.0973e-05
7.55754e-05
7.50789e-05
7.44289e-05
7.46667e-05
7.57068e-05
7.67757e-05
7.23807e-05
6.66638e-05
5.23386e-05
5.97821e-05
6.39679e-05
6.36994e-05
6.32432e-05
6.35328e-05
6.4422e-05
6.52902e-05
6.13726e-05
5.64444e-05
4.41079e-05
5.10511e-05
5.49885e-05
5.4872e-05
5.45682e-05
5.48812e-05
5.5656e-05
5.64952e-05
5.30117e-05
4.86468e-05
3.75201e-05
4.41258e-05
4.78699e-05
4.7903e-05
4.77636e-05
4.81002e-05
4.88066e-05
4.95829e-05
4.65126e-05
4.25711e-05
3.21052e-05
3.84725e-05
4.21047e-05
4.2282e-05
4.22693e-05
4.26117e-05
4.3291e-05
4.41283e-05
4.14681e-05
3.78464e-05
2.75259e-05
3.37763e-05
3.7342e-05
3.7696e-05
3.78088e-05
3.82268e-05
3.89017e-05
3.97209e-05
3.74118e-05
3.40582e-05
2.35371e-05
2.97677e-05
3.33393e-05
3.38673e-05
3.40662e-05
3.45127e-05
3.52315e-05
3.61851e-05
3.42902e-05
3.11541e-05
1.99226e-05
2.61981e-05
2.98969e-05
3.06366e-05
3.09884e-05
3.15613e-05
3.22783e-05
3.3252e-05
3.17337e-05
2.87576e-05
1.65215e-05
2.29008e-05
2.68566e-05
2.78328e-05
2.82617e-05
2.88793e-05
2.97172e-05
3.09043e-05
2.98044e-05
2.70842e-05
1.31614e-05
1.96925e-05
2.40426e-05
2.53823e-05
2.60292e-05
2.68176e-05
2.76459e-05
2.88919e-05
2.81627e-05
2.56406e-05
9.7224e-06
1.62802e-05
2.13254e-05
2.30704e-05
2.38317e-05
2.47157e-05
2.57922e-05
2.73449e-05
2.70564e-05
2.49408e-05
6.00976e-06
1.25813e-05
1.84707e-05
2.09172e-05
2.20667e-05
2.31408e-05
2.41743e-05
2.59242e-05
2.6009e-05
2.42624e-05
2.47986e-06
8.29674e-06
1.5162e-05
1.84026e-05
1.98886e-05
2.12457e-05
2.26899e-05
2.49009e-05
2.55078e-05
2.43127e-05
1.3394e-06
4.55594e-06
1.10218e-05
1.55933e-05
1.80926e-05
1.96461e-05
2.1027e-05
2.35695e-05
2.51466e-05
2.45305e-05
2.03929e-06
3.70712e-06
5.97746e-06
9.81017e-06
1.4346e-05
1.75112e-05
1.94086e-05
2.25542e-05
2.48316e-05
2.57111e-05
4.21638e-06
6.23905e-06
6.93734e-06
7.0132e-06
8.7453e-06
1.1418e-05
1.58918e-05
1.99511e-05
2.43559e-05
2.73458e-05
0.312275
1.02075
1.00524
1.00476
1.00468
1.00468
1.00476
1.00523
1.02102
0.312525
0.0636647
0.197108
0.127232
0.124045
0.12393
0.123964
0.124067
0.127152
0.198441
0.0641362
0.0176908
0.0565596
0.0360133
0.0368035
0.0356138
0.0354927
0.0360115
0.0357126
0.056648
0.0178467
0.00628816
0.0140882
0.0150571
0.0158048
0.0149702
0.0151075
0.0153529
0.0146597
0.0134146
0.00636423
0.002731
0.00334207
0.00659751
0.00613564
0.00655964
0.00590946
0.00598386
0.00641517
0.00348594
0.00275153
0.00137054
0.00104654
0.00293166
0.0047838
0.00299524
0.00437833
0.00453105
0.00282888
0.000910604
0.001398
0.000785187
0.000390678
0.00128879
0.00310145
0.00119294
0.00279983
0.00293005
0.00130051
0.000339985
0.000788883
0.000488632
0.000199647
0.000618542
0.00208487
0.000920939
0.00196661
0.00208115
0.000517074
0.000200188
0.000494874
0.000326515
0.000120842
0.00048904
0.00120208
0.000747748
0.00117529
0.00125206
0.000419713
8.137e-05
0.000334533
0.000232429
8.67901e-05
0.000269905
0.000640624
0.000474331
0.000627624
0.000668569
0.00025721
5.43349e-05
0.000238416
0.000171998
5.43018e-05
0.000148923
0.00027304
0.000256591
0.000268332
0.000285751
0.000141984
2.31159e-05
0.000176986
0.000132418
3.6057e-05
6.60533e-05
0.00012616
0.000113024
0.000124385
0.00013261
6.40862e-05
1.41881e-05
0.000136078
0.000104505
2.69184e-05
3.15374e-05
6.05814e-05
5.46737e-05
6.00746e-05
6.4354e-05
3.24921e-05
1.63269e-05
0.000107933
8.43705e-05
2.36037e-05
1.73955e-05
3.11566e-05
2.83802e-05
3.08167e-05
3.35128e-05
1.80213e-05
1.69237e-05
8.79396e-05
6.9552e-05
2.09129e-05
1.07926e-05
1.75978e-05
1.61805e-05
1.75412e-05
1.93524e-05
1.14914e-05
1.62165e-05
7.33745e-05
5.82628e-05
1.83983e-05
8.10838e-06
1.13433e-05
1.06099e-05
1.13509e-05
1.28532e-05
8.43266e-06
1.44752e-05
6.23183e-05
4.94228e-05
1.65152e-05
6.76798e-06
8.21463e-06
7.83e-06
8.25901e-06
9.4891e-06
6.88065e-06
1.31183e-05
5.37413e-05
4.23664e-05
1.51107e-05
5.96383e-06
6.76943e-06
6.21784e-06
6.61925e-06
7.65181e-06
5.8018e-06
1.20586e-05
4.71327e-05
3.65868e-05
1.41714e-05
5.51448e-06
5.91489e-06
5.48213e-06
5.72895e-06
6.55105e-06
5.28932e-06
1.10444e-05
4.17829e-05
3.17516e-05
1.35623e-05
5.38807e-06
5.43885e-06
5.04928e-06
5.13368e-06
5.84808e-06
4.94153e-06
1.03202e-05
3.76332e-05
2.76423e-05
1.34088e-05
5.264e-06
5.11664e-06
4.73811e-06
4.76361e-06
5.34328e-06
4.69623e-06
9.72354e-06
3.4162e-05
2.39849e-05
1.34625e-05
5.41935e-06
4.91458e-06
4.61981e-06
4.51663e-06
4.98245e-06
4.56534e-06
9.14701e-06
3.15324e-05
2.07201e-05
1.38561e-05
5.73022e-06
4.78541e-06
4.43371e-06
4.34838e-06
4.72794e-06
4.46698e-06
8.54676e-06
2.9104e-05
1.76292e-05
1.46965e-05
6.28984e-06
4.85185e-06
4.48344e-06
4.32101e-06
4.63147e-06
4.46809e-06
8.02477e-06
2.73903e-05
1.46133e-05
1.52599e-05
7.64649e-06
5.03725e-06
4.61764e-06
4.50449e-06
4.68535e-06
4.52391e-06
7.47043e-06
2.54628e-05
1.14997e-05
1.60508e-05
9.37619e-06
5.62139e-06
4.84122e-06
4.60043e-06
4.75482e-06
4.79271e-06
7.02371e-06
2.42424e-05
8.35886e-06
1.75974e-05
1.18309e-05
6.54574e-06
5.36795e-06
4.99619e-06
5.0999e-06
5.06875e-06
7.06138e-06
2.28369e-05
5.30498e-06
1.94407e-05
1.48041e-05
8.64691e-06
6.34241e-06
5.49464e-06
5.53833e-06
5.79992e-06
7.09539e-06
2.19615e-05
3.75574e-06
2.29662e-05
1.98385e-05
1.15797e-05
8.32233e-06
6.95456e-06
6.68703e-06
6.86485e-06
1.00357e-05
1.94998e-05
3.95413e-06
2.50675e-05
2.66311e-05
1.84085e-05
1.16512e-05
8.8682e-06
8.54774e-06
8.95828e-06
1.42599e-05
2.15221e-05
0.310933
1.00524
0.979095
0.978556
0.978476
0.978484
0.978576
0.979085
1.00537
0.31145
0.0626868
0.127212
0.0807716
0.0803857
0.0799845
0.0797654
0.0798237
0.0808715
0.126878
0.0632177
0.0173287
0.0353461
0.01702
0.0125111
0.0127874
0.0121152
0.0122617
0.0175065
0.0365429
0.0174802
0.00620162
0.0135291
0.000103292
0.000122859
0.000180823
6.24832e-05
0.000111033
0.000121492
0.0155937
0.00626914
0.00271907
0.00904617
0.000325306
0.000260491
0.000305179
0.000160756
6.63901e-06
4.54899e-05
0.0060895
0.00274823
0.0013911
0.005159
0.000212181
0.00021493
0.00021686
0.000172337
1.17874e-05
9.05969e-05
0.00452647
0.00140723
0.000800505
0.00323718
6.93866e-05
0.000207749
0.000172537
0.000113961
7.46567e-05
4.00006e-05
0.00288832
0.000810082
0.000503311
0.00164769
5.77737e-05
0.000107065
9.35715e-05
0.000107622
4.67934e-05
1.45932e-05
0.00169071
0.000510397
0.000339724
0.000874817
1.94212e-05
5.93588e-05
4.70795e-05
5.35789e-05
2.39026e-05
1.53938e-05
0.00123714
0.000344705
0.000242086
0.000366105
1.02102e-05
2.70919e-05
4.11308e-05
2.58571e-05
8.88922e-06
6.85562e-06
0.000721468
0.000245989
0.00018028
0.000164676
4.95834e-06
1.36057e-05
2.30628e-05
7.99307e-06
4.95282e-06
3.23581e-06
0.000385661
0.000183352
0.000138985
7.76839e-05
3.44895e-06
5.83073e-06
7.37847e-06
3.76356e-06
2.32284e-06
1.80036e-06
0.000165106
0.000141661
0.000110257
3.94269e-05
2.06356e-06
4.60268e-06
3.9427e-06
1.65547e-06
1.25576e-06
8.3658e-07
7.66165e-05
0.000112622
8.96044e-05
2.22539e-05
1.2983e-06
3.66521e-06
1.82614e-06
1.14353e-06
7.46945e-07
6.75119e-07
3.70627e-05
9.18616e-05
7.42192e-05
1.46866e-05
8.49379e-07
2.02496e-06
9.75792e-07
7.88548e-07
4.9413e-07
4.23667e-07
1.91665e-05
7.64781e-05
6.25113e-05
1.10653e-05
8.30617e-07
9.914e-07
4.48067e-07
5.0254e-07
3.30912e-07
2.64376e-07
1.13258e-05
6.49531e-05
5.33539e-05
9.32246e-06
7.92447e-07
4.58781e-07
4.11922e-07
2.62232e-07
2.55878e-07
2.54528e-07
7.18592e-06
5.59665e-05
4.60212e-05
8.36822e-06
6.50208e-07
4.97634e-07
2.77666e-07
2.62365e-07
2.00146e-07
2.35264e-07
6.361e-06
4.9086e-05
4.00143e-05
8.18395e-06
6.13774e-07
3.52937e-07
1.93193e-07
2.06578e-07
2.21517e-07
2.24846e-07
5.54288e-06
4.33342e-05
3.49787e-05
8.19403e-06
6.71436e-07
2.77207e-07
1.6182e-07
1.87979e-07
2.19035e-07
2.05482e-07
4.85434e-06
3.89622e-05
3.06722e-05
8.28589e-06
7.79066e-07
2.50719e-07
1.5412e-07
1.65084e-07
2.16344e-07
1.95504e-07
4.1818e-06
3.4987e-05
2.6876e-05
8.54909e-06
9.6025e-07
2.6741e-07
1.58089e-07
1.54946e-07
2.0091e-07
1.93579e-07
3.68411e-06
3.21003e-05
2.34657e-05
9.06431e-06
1.1344e-06
2.90968e-07
1.69596e-07
1.56406e-07
1.89319e-07
1.95887e-07
3.25679e-06
2.90983e-05
2.02913e-05
9.64855e-06
1.46903e-06
3.56698e-07
1.91336e-07
1.68435e-07
1.98572e-07
2.0335e-07
2.83422e-06
2.709e-05
1.73141e-05
1.05337e-05
1.84198e-06
4.27012e-07
2.23041e-07
1.83847e-07
2.06804e-07
2.14805e-07
2.45356e-06
2.4568e-05
1.44813e-05
1.17617e-05
2.54984e-06
5.93993e-07
2.77508e-07
2.13169e-07
2.22663e-07
2.34147e-07
2.06742e-06
2.30103e-05
1.17484e-05
1.25105e-05
3.98485e-06
8.64834e-07
3.68651e-07
2.54771e-07
2.6156e-07
2.66269e-07
1.76574e-06
2.05989e-05
9.09374e-06
1.36043e-05
6.25589e-06
1.45935e-06
5.64461e-07
3.43393e-07
3.22304e-07
3.27959e-07
1.46651e-06
1.89068e-05
6.74431e-06
1.53014e-05
8.89614e-06
2.66215e-06
9.26771e-07
5.01254e-07
4.29192e-07
4.42463e-07
1.4344e-06
1.58315e-05
5.18325e-06
1.72498e-05
1.30078e-05
4.94883e-06
2.01582e-06
9.31008e-07
6.5628e-07
6.59732e-07
1.87733e-06
1.32439e-05
0.310637
1.00476
0.978558
0.978026
0.977941
0.977943
0.978032
0.978558
1.00488
0.311169
0.0622474
0.124069
0.0803478
0.0793319
0.0789635
0.0790718
0.0793213
0.0801796
0.123743
0.0627688
0.0170989
0.0352459
0.0123477
0.00978745
0.00891142
0.00953465
0.00993946
0.013011
0.038108
0.0172422
0.00609793
0.0150312
4.43421e-05
3.34666e-05
0.000102118
9.81585e-05
3.32118e-05
3.27434e-05
0.0164075
0.00616198
0.00267072
0.0059616
1.55619e-06
5.18008e-10
1.54216e-06
1.77964e-06
7.75987e-10
9.85582e-05
0.00642862
0.0026998
0.00136842
0.00444823
6.76781e-05
1.43945e-06
2.23304e-07
3.79611e-09
2.70812e-07
4.8699e-05
0.00477522
0.00138369
0.000787708
0.00273103
7.26094e-05
6.87402e-07
6.55769e-07
3.52515e-08
1.01562e-07
2.11552e-05
0.00308254
0.000796951
0.000496031
0.00191099
3.47927e-05
1.35666e-07
3.37211e-07
1.00919e-07
4.61875e-08
5.13512e-07
0.00219674
0.000503145
0.000334823
0.00114231
2.16208e-05
1.28489e-07
1.74425e-07
1.12565e-07
1.17681e-08
2.39599e-06
0.00132076
0.000339277
0.000238658
0.000608938
1.0663e-05
8.14147e-08
8.59341e-08
9.51752e-08
9.847e-09
2.42991e-06
0.000705477
0.000242699
0.00017782
0.000260128
6.29083e-06
6.44371e-08
9.32071e-08
2.80427e-08
7.38257e-09
8.64702e-07
0.000302111
0.000181538
0.000137115
0.000120631
3.49794e-06
5.01412e-08
4.30691e-08
6.09153e-09
3.92825e-09
3.7452e-07
0.000140116
0.000140751
0.000108781
5.86024e-05
1.79446e-06
4.12144e-08
2.7769e-08
3.20847e-09
3.69103e-09
2.7033e-07
6.68174e-05
0.000112452
8.84001e-05
3.08575e-05
1.62231e-06
3.93161e-08
1.73598e-08
2.44607e-09
3.4024e-09
1.39161e-07
3.35278e-05
9.21431e-05
7.32196e-05
1.84752e-05
1.04567e-06
3.92574e-08
1.24946e-08
2.02476e-09
2.47842e-09
9.43526e-08
1.82311e-05
7.69885e-05
6.16665e-05
1.2819e-05
6.65623e-07
2.70979e-08
9.04182e-09
1.91521e-09
3.25456e-09
9.72923e-08
1.1024e-05
6.5627e-05
5.26368e-05
1.00746e-05
5.21337e-07
2.03621e-08
7.4428e-09
1.49661e-09
2.99747e-09
8.20652e-08
7.67834e-06
5.66443e-05
4.53931e-05
8.86418e-06
4.78993e-07
1.92691e-08
4.12284e-09
2.04089e-09
2.95029e-09
7.69314e-08
5.94488e-06
4.97581e-05
3.94693e-05
8.32408e-06
5.0377e-07
2.0842e-08
5.05394e-09
2.01806e-09
2.46391e-09
7.3067e-08
4.98153e-06
4.39615e-05
3.44962e-05
8.29357e-06
5.73487e-07
2.80569e-08
3.74963e-09
2.13006e-09
2.55943e-09
6.97835e-08
4.33821e-06
3.95631e-05
3.02412e-05
8.30772e-06
6.65455e-07
3.70145e-08
4.71932e-09
2.20502e-09
3.01358e-09
6.44497e-08
3.78247e-06
3.54878e-05
2.64997e-05
8.48582e-06
8.29991e-07
5.67197e-08
5.16145e-09
2.47719e-09
3.21195e-09
5.7849e-08
3.31452e-06
3.25244e-05
2.31475e-05
8.91715e-06
9.9085e-07
7.76177e-08
9.66648e-09
2.40158e-09
3.23573e-09
4.96284e-08
2.83308e-06
2.93759e-05
2.0072e-05
9.48329e-06
1.32533e-06
1.27042e-07
1.23472e-08
4.18139e-09
3.11301e-09
4.23574e-08
2.4389e-06
2.72895e-05
1.72006e-05
1.02589e-05
1.6506e-06
1.87087e-07
2.82367e-08
4.7979e-09
5.22637e-09
3.41258e-08
2.01408e-06
2.46082e-05
1.45207e-05
1.14969e-05
2.28123e-06
3.17031e-07
3.90547e-08
1.04668e-08
5.14726e-09
2.8456e-08
1.67682e-06
2.29123e-05
1.19391e-05
1.1872e-05
3.56037e-06
5.03105e-07
9.03085e-08
1.34472e-08
1.02047e-08
2.1816e-08
1.29061e-06
2.0373e-05
9.50417e-06
1.2582e-05
5.33807e-06
1.01487e-06
1.57188e-07
3.83585e-08
9.80699e-09
2.22927e-08
1.05173e-06
1.80654e-05
7.22752e-06
1.33639e-05
7.0685e-06
1.64811e-06
3.5543e-07
6.38296e-08
3.06274e-08
2.61695e-08
7.2302e-07
1.51862e-05
5.21573e-06
1.43161e-05
9.3879e-06
2.86295e-06
6.89369e-07
1.90921e-07
5.11746e-08
3.02206e-08
6.75055e-07
1.11797e-05
0.310565
1.00468
0.978487
0.977922
0.977835
0.977843
0.977946
0.97848
1.00481
0.311096
0.0621134
0.123983
0.0796945
0.079481
0.079135
0.0790872
0.0789703
0.0797372
0.123626
0.0626325
0.017014
0.0361326
0.0118724
0.0104482
0.00973544
0.00972129
0.00928049
0.0123233
0.0358529
0.0171544
0.00605217
0.0136873
0.00024293
5.57396e-05
0.000159521
5.61227e-05
8.25547e-05
5.20404e-05
0.0153312
0.00611444
0.00264567
0.00979385
0.000353304
3.30036e-07
1.07295e-05
1.94953e-10
6.2297e-08
4.44484e-05
0.00607269
0.00267405
0.00135274
0.006233
0.000300212
1.12701e-06
2.72934e-06
3.41291e-12
2.12041e-07
6.77396e-05
0.00438529
0.00136805
0.000778863
0.00394099
0.000183363
7.73837e-07
7.28556e-08
1.18696e-10
7.06544e-08
1.16633e-05
0.00278523
0.000787941
0.00048898
0.00282518
0.000171664
7.71067e-07
2.88758e-09
5.8225e-12
6.73352e-08
1.63864e-05
0.00199451
0.000496232
0.000329386
0.00163258
7.47888e-05
7.04938e-07
3.07076e-09
3.08036e-11
1.49582e-08
4.30848e-06
0.00120891
0.000335135
0.000235337
0.000868181
2.70857e-05
4.17723e-07
7.23063e-10
7.54067e-11
8.15947e-09
2.68944e-06
0.000620327
0.000239679
0.000175082
0.000368074
9.45112e-06
5.38165e-08
4.12176e-11
1.40141e-11
4.55436e-09
1.37087e-06
0.000362087
0.000179129
0.000135167
0.000168671
4.90712e-06
2.75544e-08
1.16585e-10
6.41421e-12
2.96303e-09
6.6422e-07
0.000196658
0.000139003
0.000107327
8.00831e-05
2.15443e-06
1.36585e-08
4.49677e-11
2.33254e-12
1.87833e-09
2.78918e-07
8.85233e-05
0.00011091
8.719e-05
4.05995e-05
1.54039e-06
9.51907e-09
3.23514e-11
2.05853e-12
1.43838e-09
2.59108e-07
4.29292e-05
9.0804e-05
7.23214e-05
2.28171e-05
1.1507e-06
9.45349e-09
5.30375e-11
2.65177e-12
8.30343e-10
1.77716e-07
2.23492e-05
7.57882e-05
6.09379e-05
1.47575e-05
9.63249e-07
1.29806e-08
1.28224e-10
3.3074e-12
5.21916e-10
1.47527e-07
1.3028e-05
6.45668e-05
5.20551e-05
1.10153e-05
8.63936e-07
1.64698e-08
2.55718e-10
6.20302e-12
3.96731e-10
1.25158e-07
8.32201e-06
5.57054e-05
4.49192e-05
9.29563e-06
6.54505e-07
2.0998e-08
1.22645e-10
1.0998e-11
3.34357e-10
9.59828e-08
6.13916e-06
4.89449e-05
3.90973e-05
8.60705e-06
5.56296e-07
1.68366e-08
8.57625e-10
2.15988e-11
3.23324e-10
9.00337e-08
4.9735e-06
4.324e-05
3.42151e-05
8.24774e-06
5.86533e-07
3.83809e-08
5.65032e-10
4.48355e-11
3.04189e-10
8.16656e-08
4.25975e-06
3.89223e-05
3.00345e-05
8.48836e-06
6.76252e-07
3.96826e-08
2.94329e-09
9.54466e-11
3.25502e-10
7.14089e-08
3.6968e-06
3.49179e-05
2.63595e-05
8.54487e-06
8.3454e-07
7.27597e-08
2.46965e-09
2.15714e-10
3.14926e-10
5.98202e-08
3.21959e-06
3.19977e-05
2.30523e-05
8.87102e-06
1.02087e-06
8.59311e-08
1.01897e-08
4.78576e-10
3.25644e-10
5.07593e-08
2.78175e-06
2.89594e-05
2.00238e-05
9.43714e-06
1.28574e-06
1.74601e-07
1.21959e-08
1.1728e-09
3.70017e-10
4.11653e-08
2.38479e-06
2.68617e-05
1.71301e-05
9.95369e-06
1.63736e-06
2.0533e-07
3.31512e-08
1.67585e-09
4.92903e-10
3.31237e-08
1.98011e-06
2.43057e-05
1.4433e-05
1.11552e-05
2.07394e-06
3.89621e-07
4.24481e-08
7.82093e-09
9.918e-10
2.49572e-08
1.66278e-06
2.26503e-05
1.18201e-05
1.15618e-05
3.23148e-06
4.98558e-07
1.02904e-07
1.0616e-08
1.16625e-09
1.83912e-08
1.26335e-06
2.00359e-05
9.32601e-06
1.2276e-05
4.93375e-06
8.92783e-07
1.42103e-07
3.34954e-08
6.43876e-09
1.37486e-08
1.0335e-06
1.81092e-05
6.98062e-06
1.30892e-05
6.75059e-06
1.5068e-06
3.3928e-07
5.20459e-08
7.17507e-09
1.16208e-08
7.11316e-07
1.48789e-05
4.82714e-06
1.40734e-05
9.01264e-06
2.58961e-06
6.2614e-07
1.65346e-07
4.53475e-08
2.69555e-08
7.6195e-07
1.17041e-05
0.310566
1.00468
0.978483
0.977935
0.977836
0.977843
0.97794
0.978483
1.00481
0.311096
0.0621133
0.124021
0.0797948
0.0794011
0.0794223
0.0789372
0.0789953
0.0796688
0.12362
0.0626318
0.0170138
0.0354323
0.012244
0.00993639
0.00959448
0.0094667
0.00936328
0.0119283
0.0358217
0.0171537
0.00605226
0.0147451
6.22459e-05
5.36e-05
5.08144e-05
8.79067e-05
0.000231154
0.00013218
0.0149793
0.00611388
0.00264544
0.00657151
0.000164244
9.36869e-08
9.96365e-07
3.18381e-09
2.26997e-05
3.94515e-05
0.00661636
0.00267365
0.0013529
0.00270846
0.000127558
6.94369e-08
7.98064e-07
5.75916e-11
3.40117e-06
2.27654e-05
0.00280148
0.00136803
0.000778793
0.00172243
0.000115058
2.25783e-08
1.88351e-09
5.84682e-10
1.4282e-06
1.21462e-05
0.00160327
0.000787875
0.000489301
0.0012521
5.39425e-05
4.56064e-08
1.04956e-09
6.75502e-10
5.74372e-07
5.58845e-06
0.000858558
0.000496411
0.000330261
0.00076747
2.57681e-05
2.07276e-08
1.88159e-11
6.46874e-11
2.8203e-07
3.15737e-06
0.000350499
0.000335153
0.00023524
0.000414274
1.4614e-05
3.73772e-08
3.42766e-11
2.06719e-10
1.43226e-07
2.31387e-06
0.000331587
0.000239878
0.000175265
0.000181032
8.5361e-06
2.50875e-08
4.19857e-11
6.22512e-11
9.77219e-08
1.19365e-06
0.000219477
0.000179021
0.000135236
8.70472e-05
5.45966e-06
3.06935e-08
6.1419e-11
4.39088e-11
5.8953e-08
6.06983e-07
0.000120986
0.000138934
0.000107358
4.40986e-05
2.9863e-06
2.01164e-08
9.703e-11
1.58912e-11
4.27431e-08
3.07129e-07
5.59597e-05
0.000110858
8.7262e-05
2.5442e-05
1.3195e-06
1.87504e-08
1.17132e-10
3.92659e-11
3.27901e-08
1.71676e-07
2.87418e-05
9.08457e-05
7.23647e-05
1.65386e-05
1.29074e-06
1.37044e-08
4.66931e-11
1.16879e-11
2.4093e-08
9.48493e-08
1.60745e-05
7.58251e-05
6.0995e-05
1.1945e-05
8.51496e-07
1.81086e-08
3.29975e-10
3.03805e-11
1.87423e-08
9.26884e-08
9.97204e-06
6.45637e-05
5.20917e-05
9.64286e-06
5.7567e-07
1.54551e-08
2.51893e-10
1.88639e-11
1.01229e-08
7.20234e-08
6.96967e-06
5.56204e-05
4.49538e-05
8.33372e-06
4.73598e-07
1.39862e-08
4.34763e-10
1.1997e-11
3.61353e-09
6.70022e-08
5.36669e-06
4.88171e-05
3.91081e-05
8.07617e-06
4.72097e-07
1.6687e-08
3.62289e-10
2.50253e-11
3.38618e-09
6.17493e-08
4.25526e-06
4.30904e-05
3.42078e-05
7.89535e-06
5.12052e-07
2.081e-08
9.6481e-10
2.02411e-11
2.6525e-09
5.59003e-08
3.67635e-06
3.87742e-05
3.0021e-05
7.92917e-06
6.08696e-07
3.04205e-08
8.43459e-10
8.25352e-11
2.08968e-09
4.82024e-08
3.24754e-06
3.47831e-05
2.6332e-05
8.06223e-06
7.30923e-07
4.35311e-08
3.39031e-09
2.74653e-11
1.65636e-09
4.72427e-08
2.94181e-06
3.19228e-05
2.30231e-05
8.51021e-06
9.13308e-07
6.72758e-08
2.56764e-09
4.49668e-10
8.84777e-10
4.29209e-08
2.603e-06
2.8893e-05
1.99697e-05
9.02748e-06
1.1926e-06
1.00702e-07
1.35339e-08
8.19046e-10
8.90572e-10
3.69156e-08
2.30101e-06
2.68619e-05
1.7117e-05
9.80721e-06
1.5135e-06
1.76529e-07
1.51653e-08
1.84055e-09
4.95147e-10
3.08336e-08
1.93126e-06
2.42794e-05
1.44337e-05
1.11088e-05
2.1013e-06
2.5417e-07
4.20667e-08
2.59323e-09
1.0767e-09
2.37742e-08
1.6538e-06
2.26426e-05
1.1854e-05
1.16627e-05
3.37199e-06
5.05315e-07
5.9112e-08
1.22409e-08
1.82349e-09
1.85905e-08
1.2632e-06
2.01098e-05
9.36558e-06
1.24102e-05
5.10155e-06
9.13151e-07
1.66241e-07
1.96148e-08
4.47299e-09
1.2354e-08
1.05903e-06
1.78942e-05
7.03024e-06
1.33075e-05
7.0175e-06
1.56518e-06
2.85053e-07
7.0549e-08
7.29351e-09
1.07748e-08
7.19504e-07
1.4983e-05
4.87552e-06
1.4311e-05
9.29373e-06
2.78285e-06
6.93824e-07
1.54449e-07
4.40631e-08
2.53946e-08
7.72698e-07
1.14946e-05
0.310642
1.00476
0.978562
0.978027
0.977946
0.977927
0.978026
0.97857
1.00488
0.311167
0.062249
0.124141
0.0801708
0.0795751
0.079109
0.079314
0.0793232
0.0798506
0.123764
0.0627674
0.0170993
0.0363952
0.0141367
0.00990869
0.00920349
0.0106901
0.0100873
0.0128992
0.0374676
0.0172398
0.00609784
0.0151872
0.00104292
7.77667e-05
7.21258e-05
4.47206e-05
3.26319e-05
5.4321e-05
0.0160422
0.00615992
0.00267071
0.00673939
0.00062717
2.94506e-07
6.74551e-08
2.82776e-09
4.18835e-09
2.54261e-05
0.00627002
0.00269907
0.00136824
0.00280597
0.000539581
1.5171e-06
6.77097e-07
8.52279e-10
6.72041e-08
8.02187e-05
0.00466489
0.00138344
0.000788021
0.00168078
0.000200802
1.13249e-06
8.82137e-09
7.73203e-08
8.91772e-08
7.80233e-06
0.00287354
0.000797339
0.000496251
0.00119865
0.000129637
7.5227e-07
7.01574e-10
1.57718e-09
3.77557e-08
1.40126e-05
0.00201956
0.000502424
0.000334704
0.000727887
7.33765e-05
6.2211e-07
2.27325e-09
1.3654e-09
2.36579e-08
3.34807e-06
0.00120167
0.000339692
0.000238882
0.000391418
2.23099e-05
3.68265e-07
4.42987e-09
6.27e-09
3.91904e-09
1.81993e-06
0.000636432
0.000243037
0.000177856
0.000171196
1.25773e-05
2.01678e-07
4.55906e-09
1.93897e-09
3.18129e-09
1.32616e-06
0.000288118
0.000181644
0.00013693
8.27363e-05
5.26006e-06
1.29721e-07
2.6586e-09
1.95533e-09
2.28502e-09
5.55957e-07
0.000140736
0.000140785
0.000108711
4.27142e-05
3.98238e-06
1.01204e-07
1.65588e-09
9.70937e-10
1.18501e-09
2.46613e-07
6.64252e-05
0.000112471
8.83073e-05
2.41959e-05
2.16174e-06
6.46159e-08
1.39499e-09
8.79444e-10
1.34241e-09
2.25039e-07
3.32499e-05
9.21487e-05
7.32001e-05
1.49463e-05
1.62888e-06
2.73413e-08
1.40042e-09
1.02409e-09
1.14256e-09
1.56557e-07
1.81163e-05
7.69879e-05
6.16333e-05
1.22211e-05
1.31409e-06
4.52914e-08
1.39453e-09
1.08246e-09
1.29833e-09
1.31944e-07
1.10408e-05
6.56328e-05
5.25865e-05
1.01767e-05
8.65725e-07
2.87446e-08
1.53784e-09
1.18211e-09
1.49821e-09
1.15043e-07
7.70014e-06
5.66439e-05
4.53302e-05
8.40766e-06
6.00323e-07
3.78729e-08
1.72574e-09
1.27794e-09
1.71542e-09
9.17341e-08
5.99659e-06
4.97736e-05
3.93962e-05
8.35411e-06
5.40246e-07
3.03564e-08
2.13043e-09
1.39163e-09
2.00986e-09
8.59091e-08
4.97414e-06
4.39661e-05
3.44528e-05
8.11716e-06
5.80514e-07
3.22408e-08
2.14822e-09
1.46822e-09
2.1726e-09
7.60571e-08
4.28496e-06
3.95642e-05
3.02108e-05
8.20466e-06
6.80497e-07
3.95409e-08
4.12339e-09
1.74657e-09
2.52205e-09
6.5793e-08
3.71724e-06
3.54789e-05
2.64932e-05
8.46177e-06
8.30383e-07
5.79835e-08
3.63864e-09
2.07913e-09
2.64678e-09
5.70532e-08
3.24125e-06
3.25119e-05
2.3181e-05
8.99852e-06
1.01408e-06
8.34135e-08
1.22485e-08
2.73201e-09
2.80594e-09
4.86903e-08
2.79889e-06
2.94148e-05
2.00987e-05
9.59383e-06
1.31784e-06
1.31204e-07
1.31971e-08
3.82863e-09
3.69905e-09
4.12493e-08
2.41307e-06
2.72858e-05
1.72276e-05
1.02857e-05
1.6628e-06
1.87207e-07
3.32122e-08
4.35434e-09
4.24869e-09
3.34379e-08
2.00719e-06
2.47015e-05
1.45397e-05
1.14358e-05
2.20157e-06
3.07623e-07
3.97926e-08
1.13549e-08
4.62854e-09
2.78984e-08
1.7039e-06
2.30252e-05
1.19799e-05
1.19071e-05
3.57072e-06
4.90764e-07
9.73876e-08
1.36152e-08
8.90843e-09
2.1543e-08
1.30236e-06
2.03389e-05
9.53894e-06
1.25514e-05
5.23571e-06
9.90163e-07
1.56622e-07
3.95399e-08
9.91342e-09
2.13212e-08
1.06554e-06
1.86005e-05
7.2769e-06
1.3428e-05
7.08991e-06
1.60874e-06
3.56695e-07
6.36506e-08
2.55812e-08
2.13167e-08
7.36284e-07
1.51716e-05
5.24585e-06
1.43838e-05
9.42638e-06
2.87728e-06
6.86712e-07
1.92026e-07
4.83513e-08
3.92421e-08
7.70131e-07
1.23276e-05
0.310939
1.00524
0.979088
0.978569
0.978475
0.978472
0.978546
0.979072
1.00536
0.311455
0.0627038
0.127187
0.0807604
0.0798748
0.0798705
0.0799604
0.0805229
0.0810938
0.12681
0.0632236
0.0173311
0.0350732
0.0176332
0.0124544
0.0125354
0.0126585
0.0129559
0.0183092
0.0359282
0.017477
0.00619948
0.0144207
8.48532e-05
4.78662e-05
4.56209e-05
6.59735e-05
4.82592e-05
0.000299561
0.0149722
0.00626516
0.00271953
0.0060875
0.00024797
0.000162443
2.14156e-05
8.32725e-05
8.32698e-06
0.000375694
0.00605147
0.00274818
0.00139201
0.00316663
0.000158488
8.04384e-05
8.27937e-05
5.46997e-05
5.11206e-05
0.000192018
0.00388056
0.00140754
0.000802087
0.00205619
4.79828e-05
2.57525e-05
1.50918e-05
1.95717e-05
1.05068e-05
2.60606e-05
0.0020721
0.000810598
0.000504107
0.00105698
2.04837e-05
2.49453e-05
5.17823e-07
1.28697e-06
6.21844e-06
3.5569e-05
0.00149474
0.000510334
0.000340074
0.000566677
8.81733e-06
1.05285e-05
2.57499e-06
3.53498e-06
6.5235e-06
1.27274e-05
0.000849111
0.000344191
0.000242524
0.000244311
5.07094e-06
6.13883e-06
2.67188e-06
3.98139e-06
1.92427e-06
8.82314e-06
0.000456538
0.000245877
0.000180513
0.000114874
2.69423e-06
5.81874e-06
9.55869e-07
1.05848e-06
1.25883e-06
5.10947e-06
0.000198256
0.000183459
0.000139138
5.6919e-05
1.56388e-06
2.17681e-06
7.09391e-07
6.04913e-07
6.22801e-07
2.44377e-06
9.38161e-05
0.000141771
0.000110355
3.07246e-05
1.28807e-06
9.93126e-07
2.68601e-07
3.69009e-07
4.29076e-07
1.89114e-06
4.64742e-05
0.000112809
8.96499e-05
1.86762e-05
1.05172e-06
9.50147e-07
1.97749e-07
2.10028e-07
3.47277e-07
1.34905e-06
2.4906e-05
9.20305e-05
7.42974e-05
1.29569e-05
7.28592e-07
5.34184e-07
1.96007e-07
2.34493e-07
1.8639e-07
9.75252e-07
1.47911e-05
7.66435e-05
6.25764e-05
1.02252e-05
5.43361e-07
4.46156e-07
1.4417e-07
1.7836e-07
1.59504e-07
8.3303e-07
9.92038e-06
6.51418e-05
5.34118e-05
8.81886e-06
4.93395e-07
3.93753e-07
1.61492e-07
1.66604e-07
1.47185e-07
5.29603e-07
7.46231e-06
5.60971e-05
4.60596e-05
8.08093e-06
5.05725e-07
2.82987e-07
1.48323e-07
1.49596e-07
1.56232e-07
3.37804e-07
6.00932e-06
4.91754e-05
4.00423e-05
7.9437e-06
5.45936e-07
2.43889e-07
1.48257e-07
1.46729e-07
1.65224e-07
2.60626e-07
5.09244e-06
4.33836e-05
3.49969e-05
7.94846e-06
6.34566e-07
2.39116e-07
1.54206e-07
1.48049e-07
1.73656e-07
2.32221e-07
4.51302e-06
3.8996e-05
3.06875e-05
8.06161e-06
7.27481e-07
2.5126e-07
1.66518e-07
1.50805e-07
1.79431e-07
2.20895e-07
4.04789e-06
3.49983e-05
2.68943e-05
8.408e-06
8.9413e-07
2.73353e-07
1.73016e-07
1.61205e-07
1.80224e-07
2.17842e-07
3.65245e-06
3.21295e-05
2.35099e-05
9.09823e-06
1.10301e-06
3.07589e-07
2.01833e-07
1.63226e-07
1.95991e-07
2.17689e-07
3.25362e-06
2.91283e-05
2.03769e-05
9.79125e-06
1.45172e-06
3.73858e-07
2.12796e-07
1.90499e-07
2.04734e-07
2.25801e-07
2.88668e-06
2.71808e-05
1.74607e-05
1.10387e-05
1.92892e-06
4.5599e-07
2.85619e-07
2.02714e-07
2.15588e-07
2.32712e-07
2.50829e-06
2.46946e-05
1.46731e-05
1.22644e-05
2.79521e-06
6.61761e-07
2.93705e-07
2.25605e-07
2.32594e-07
2.50667e-07
2.16312e-06
2.3202e-05
1.19575e-05
1.29853e-05
4.30323e-06
9.17644e-07
3.96814e-07
2.69059e-07
2.68657e-07
2.79687e-07
1.83719e-06
2.08286e-05
9.342e-06
1.41448e-05
6.66017e-06
1.55324e-06
5.30591e-07
3.26163e-07
3.0753e-07
3.25972e-07
1.57186e-06
1.93644e-05
6.97523e-06
1.56621e-05
9.24982e-06
2.73006e-06
9.36739e-07
4.98444e-07
4.1476e-07
4.37594e-07
1.499e-06
1.6121e-05
5.35017e-06
1.75121e-05
1.31594e-05
5.0742e-06
1.9061e-06
8.07141e-07
6.02361e-07
6.05642e-07
1.93591e-06
1.38413e-05
0.31211
1.02104
1.00538
1.00489
1.00481
1.00481
1.00489
1.00536
1.02102
0.312597
0.0637043
0.198284
0.126919
0.12372
0.123711
0.123652
0.123747
0.12685
0.200411
0.0642252
0.0176876
0.0564896
0.0359067
0.0366115
0.0372811
0.0375305
0.0364603
0.0356965
0.0563726
0.0178751
0.00628551
0.0139693
0.0152439
0.0158371
0.0159807
0.0142091
0.0152554
0.0148772
0.013555
0.00637512
0.00272839
0.00324545
0.00609679
0.00601377
0.00628551
0.0102905
0.00680321
0.00597125
0.00309042
0.00276676
0.00137013
0.00101294
0.00412735
0.00513125
0.00478047
0.0065835
0.00285653
0.00394206
0.000964212
0.00138912
0.00078503
0.000369866
0.0023664
0.00350152
0.00310042
0.00413169
0.00175736
0.00199383
0.000346225
0.000795375
0.000488388
0.00019229
0.00163782
0.00182325
0.002208
0.0029774
0.00113145
0.0014005
0.000182609
0.000495315
0.000326278
0.000116081
0.000909629
0.000888727
0.00133022
0.00174823
0.000924236
0.000810126
0.000111703
0.000331551
0.000232805
8.56358e-05
0.000486922
0.000816418
0.000710806
0.000930717
0.000576177
0.000436341
8.17352e-05
0.000236481
0.00017261
4.04477e-05
0.000205935
0.000543191
0.000304177
0.000394222
0.000296642
0.000189657
5.04599e-05
0.000176192
0.000132276
2.12931e-05
9.30264e-05
0.000291797
0.000141261
0.000179225
0.000179284
9.0058e-05
2.31285e-05
0.000136095
0.000104454
2.07104e-05
4.48338e-05
0.000126777
6.79531e-05
8.42646e-05
9.91647e-05
4.54019e-05
1.86126e-05