/*--------------------------------*- C++ -*----------------------------------*\
| =========                 |                                                 |
| \\      /  F ield         | OpenFOAM: The Open Source CFD Toolbox           |
|  \\    /   O peration     | Version:  4.1                                   |
|   \\  /    A nd           | Web:      www.OpenFOAM.org                      |
|    \\/     M anipulation  |                                                 |
\*---------------------------------------------------------------------------*/
FoamFile
{
    version     2.0;
    format      ascii;
    class       volScalarField;
    location    "1800";
    object      k;
}
// * * * * * * * * * * * * * * * * * * * * * * * * * * * * * * * * * * * * * //

dimensions      [0 2 -2 0 0 0 0];

internalField   nonuniform List<scalar> 
12000
(
0.116479
0.1135
0.113214
0.113139
0.11312
0.11312
0.113138
0.113212
0.113545
0.116532
0.0404635
0.0396302
0.0394323
0.039259
0.0392037
0.0392037
0.0392585
0.0394246
0.0396131
0.0404387
0.0169257
0.0168535
0.0167418
0.0165984
0.0165451
0.0165456
0.0166
0.0167407
0.0168534
0.0169283
0.00838916
0.00851463
0.00841591
0.00831299
0.00827434
0.00827266
0.00831454
0.00842246
0.00852097
0.00839571
0.00476745
0.00491681
0.00484938
0.00477625
0.00474294
0.0047503
0.00478127
0.00485656
0.00491745
0.00477757
0.0030099
0.00313309
0.00310601
0.00305278
0.00303328
0.0030345
0.00305729
0.00310964
0.00313848
0.00302077
0.00205853
0.00215752
0.00215336
0.00212117
0.0021034
0.00210607
0.00212353
0.00215453
0.00215894
0.00206913
0.00149674
0.00157027
0.00158509
0.0015633
0.00154983
0.00154899
0.00156304
0.00158561
0.00157211
0.00150597
0.00114094
0.00120123
0.0012195
0.00120649
0.00119267
0.00119572
0.00120661
0.00121965
0.00120549
0.00115004
0.000902634
0.000954877
0.000973433
0.000964906
0.000955063
0.000956794
0.000965761
0.000975498
0.000959118
0.000912155
0.000735417
0.000781134
0.00080044
0.000794279
0.000787025
0.000788011
0.000795439
0.000803508
0.000785332
0.000745702
0.000613637
0.000655525
0.000674228
0.000669132
0.000663696
0.000664564
0.000670829
0.000677583
0.000659188
0.000624786
0.000522018
0.000560635
0.00057885
0.000574731
0.000570492
0.000571098
0.000576488
0.000582615
0.000564377
0.000534282
0.000451081
0.000486799
0.000504918
0.000501821
0.000498711
0.000499521
0.000504347
0.000508971
0.000491195
0.000464833
0.000394887
0.000428683
0.000446666
0.000444469
0.00044189
0.000442736
0.00044697
0.00045129
0.000434288
0.000410586
0.000349387
0.000382042
0.000399692
0.00039808
0.000396363
0.000397363
0.000401139
0.00040508
0.000388816
0.000367416
0.000311721
0.000343769
0.000361264
0.000360371
0.000359174
0.000360548
0.000364057
0.000367684
0.000352416
0.000332716
0.000279833
0.000311785
0.000329261
0.000329095
0.00032862
0.00033015
0.000333399
0.000336985
0.000322737
0.000304354
0.000252209
0.000284623
0.000302194
0.00030283
0.000302807
0.000304473
0.000307829
0.000311664
0.000298846
0.00028137
0.000227583
0.000260831
0.000278887
0.000280535
0.000281134
0.000283234
0.000286508
0.000290524
0.000278897
0.00026219
0.000204983
0.000239623
0.00025851
0.000261206
0.000262273
0.000264603
0.000268256
0.000272977
0.000262954
0.000247023
0.000183384
0.00021993
0.000240308
0.000244319
0.000246231
0.000249324
0.000253032
0.000258003
0.000249689
0.000234065
0.000161834
0.00020083
0.000223614
0.00022915
0.000231543
0.000234977
0.000239499
0.000245691
0.000239491
0.000224835
0.000139066
0.00018143
0.000207619
0.000215453
0.000219169
0.000223626
0.000228229
0.00023491
0.000230622
0.000216685
0.000113687
0.00015969
0.000191464
0.000202103
0.000206628
0.00021176
0.00021791
0.000226448
0.000224613
0.000212652
8.26254e-05
0.000134489
0.000173846
0.00018924
0.000196257
0.000202659
0.000208714
0.000218561
0.000218839
0.000208848
4.58488e-05
0.000101869
0.000152341
0.000173524
0.000183132
0.000191362
0.000200092
0.000212784
0.0002161
0.000208894
3.02901e-05
6.83713e-05
0.000123085
0.000155902
0.000171394
0.000181748
0.000189893
0.000205469
0.000213483
0.000211549
4.00069e-05
5.96115e-05
8.232e-05
0.000113427
0.000147847
0.000167543
0.000180929
0.000197912
0.000214358
0.00021384
6.47567e-05
8.4308e-05
8.96419e-05
9.5305e-05
0.00010296
0.000127715
0.000156529
0.000186081
0.000206864
0.000227885
0.113499
0.0163847
0.0144222
0.0144135
0.0144149
0.0144149
0.0144136
0.0144222
0.0163768
0.113441
0.0396288
0.000981429
0.000558698
0.000554088
0.000553797
0.000553793
0.000553957
0.000558985
0.00098135
0.0394244
0.0168515
0.00036433
0.000110677
0.000107402
0.000107817
0.000107908
0.000107557
0.000110797
0.000363488
0.0167448
0.00851239
0.000219933
5.65831e-05
5.53862e-05
5.61192e-05
5.62688e-05
5.60778e-05
5.65458e-05
0.000211898
0.00843998
0.00491421
0.000166053
3.72138e-05
4.25483e-05
3.98568e-05
4.00942e-05
4.00098e-05
3.59468e-05
0.000178105
0.00487058
0.00313069
0.000162484
2.7817e-05
2.91709e-05
2.79534e-05
2.75055e-05
2.75454e-05
2.71773e-05
0.000135158
0.00311431
0.00215483
0.000159987
2.17982e-05
1.93914e-05
2.48899e-05
2.00377e-05
2.01445e-05
2.29253e-05
0.000189457
0.00214715
0.00156733
0.000141813
1.7618e-05
1.33262e-05
2.0752e-05
1.69303e-05
1.65849e-05
2.0969e-05
0.000162534
0.001568
0.00119809
0.000210089
1.478e-05
1.11498e-05
1.87468e-05
1.32927e-05
1.39497e-05
1.89956e-05
0.000188478
0.00120478
0.000951507
0.000214919
1.32974e-05
9.67207e-06
1.38707e-05
1.04983e-05
1.13821e-05
1.58069e-05
0.000186078
0.00096112
0.000777501
0.000213086
1.16382e-05
9.4098e-06
9.83875e-06
9.37631e-06
1.0351e-05
1.12479e-05
0.000147459
0.000789155
0.000651469
0.000197684
1.08039e-05
9.31727e-06
1.09156e-05
1.09702e-05
1.22208e-05
7.81227e-06
0.000165013
0.000663251
0.000556093
0.000164667
1.1218e-05
1.16027e-05
5.42081e-06
4.44657e-06
6.2411e-06
1.66146e-05
0.000156631
0.000568576
0.000481703
0.000146939
1.65153e-05
2.10817e-05
1.98233e-05
2.25738e-05
2.60269e-05
1.3614e-05
0.000135669
0.000495553
0.000422946
0.000140654
2.05965e-05
3.65644e-05
1.60748e-05
1.70253e-05
1.96025e-05
2.48954e-05
0.000127966
0.00043868
0.000375538
0.000136386
2.90354e-05
3.15993e-05
2.12233e-05
2.26231e-05
2.57791e-05
3.4645e-05
0.000120086
0.000393188
0.000336417
0.000134032
3.66053e-05
3.49685e-05
2.53124e-05
3.64354e-05
4.06852e-05
3.95418e-05
0.000113678
0.000355984
0.000303435
0.00013209
4.14071e-05
3.82098e-05
3.49035e-05
3.47362e-05
3.88839e-05
4.39489e-05
0.000109245
0.00032591
0.00027525
0.000134719
4.59837e-05
4.07407e-05
3.52474e-05
3.68428e-05
4.79696e-05
4.2486e-05
0.000107765
0.000300553
0.000250308
0.000134075
5.07823e-05
4.77289e-05
3.77846e-05
3.86855e-05
4.66194e-05
4.35946e-05
9.98303e-05
0.000280014
0.000228083
0.000137303
5.65792e-05
4.95971e-05
4.20719e-05
4.38689e-05
5.12979e-05
4.67651e-05
9.76188e-05
0.000262151
0.000207395
0.000141273
6.28658e-05
5.25758e-05
4.64357e-05
4.79786e-05
5.11111e-05
4.97771e-05
9.9043e-05
0.000248367
0.000187897
0.000151486
6.8577e-05
5.56956e-05
5.0834e-05
5.05728e-05
5.35179e-05
5.25846e-05
9.77703e-05
0.000235377
0.000168578
0.000159144
8.13795e-05
5.9483e-05
5.41892e-05
5.32062e-05
5.55295e-05
5.47937e-05
9.48603e-05
0.000226034
0.000148626
0.000167302
9.63187e-05
6.41585e-05
5.72319e-05
5.5407e-05
5.74052e-05
5.72305e-05
9.04706e-05
0.000215684
0.00012667
0.000177861
0.000120548
7.33462e-05
6.20408e-05
5.85205e-05
6.03311e-05
5.98676e-05
8.53693e-05
0.000207971
0.000102371
0.000192503
0.000142595
8.52998e-05
6.90331e-05
6.32678e-05
6.37362e-05
6.41981e-05
8.49894e-05
0.000199481
7.57419e-05
0.000211169
0.000177399
0.000111272
8.18846e-05
7.03413e-05
7.06985e-05
7.15715e-05
8.55306e-05
0.000193485
6.04732e-05
0.00023659
0.000216731
0.000142193
0.000107206
8.72931e-05
8.25038e-05
8.41179e-05
0.000102589
0.000182219
6.25677e-05
0.000258044
0.000268648
0.000205897
0.00013958
0.000109643
0.000102459
0.000103913
0.000136746
0.000180301
0.113214
0.0144226
0.0126256
0.0126221
0.0126221
0.0126221
0.012622
0.0126256
0.0144187
0.113084
0.0394309
0.000558888
0.000181431
0.000178965
0.000178608
0.000178562
0.000178919
0.00018161
0.000558572
0.039198
0.0167407
0.000111004
2.03505e-06
1.84802e-06
1.85714e-06
1.83069e-06
1.83728e-06
2.05473e-06
0.000110268
0.0166345
0.00841513
5.77454e-05
1.5638e-09
1.13375e-09
1.36814e-09
9.47678e-10
1.11431e-09
1.59336e-09
5.63889e-05
0.00834797
0.00484652
3.55837e-05
5.94197e-08
4.43869e-08
4.24378e-08
2.16565e-08
2.60384e-09
9.63769e-09
3.86795e-05
0.00480903
0.00310709
2.37584e-05
1.02082e-07
6.55073e-08
4.9106e-08
6.91972e-08
2.97859e-08
7.374e-08
2.5694e-05
0.00308428
0.0021512
1.92873e-05
7.74306e-08
8.77107e-08
8.59197e-08
7.19157e-08
1.22362e-07
1.35325e-07
1.77726e-05
0.00214476
0.00158191
1.5039e-05
1.62834e-07
7.01829e-08
7.68612e-08
1.08146e-07
1.04509e-07
6.55231e-08
1.11103e-05
0.00158438
0.0012177
1.09586e-05
1.14749e-07
5.94898e-08
1.00619e-07
9.78232e-08
8.06146e-08
2.19025e-07
1.24952e-05
0.00122157
0.000971442
1.02416e-05
1.29277e-07
6.87063e-08
1.08813e-07
7.91994e-08
7.74003e-08
1.44046e-07
9.42373e-06
0.000977671
0.000797666
1.02901e-05
1.38785e-07
7.18347e-08
5.41585e-08
4.47444e-08
6.76152e-08
8.21482e-08
6.76267e-06
0.00080499
0.000670373
1.32646e-05
1.79741e-07
7.38146e-08
4.71246e-08
4.19277e-08
6.55143e-08
7.0116e-08
8.99169e-06
0.000678105
0.000574494
2.56402e-05
1.22041e-07
8.87298e-08
4.09698e-08
4.17928e-08
7.3383e-08
1.08155e-07
1.02044e-05
0.000581987
0.000499981
2.12294e-05
3.0096e-07
9.50888e-08
5.5486e-08
7.44918e-08
5.64306e-08
1.73408e-07
1.12794e-05
0.000508051
0.000441017
3.63213e-05
1.20494e-06
1.16901e-07
4.22568e-08
2.27145e-08
2.92537e-07
4.60385e-07
2.13717e-05
0.000449493
0.000393279
5.0142e-05
2.14488e-06
2.37026e-07
2.5381e-07
2.23494e-07
6.37101e-07
8.19653e-07
3.46265e-05
0.000403116
0.000353781
5.99727e-05
3.27794e-06
7.88509e-07
3.7016e-07
5.92223e-07
9.89626e-07
1.25455e-06
3.21385e-05
0.000364828
0.000320502
6.67747e-05
4.36144e-06
1.27513e-06
6.98976e-07
8.53159e-07
1.33777e-06
1.50801e-06
3.23281e-05
0.000334079
0.000291937
7.38024e-05
5.97522e-06
1.54032e-06
9.4668e-07
1.15664e-06
1.70684e-06
1.91776e-06
3.33829e-05
0.000307419
0.000266854
7.91733e-05
7.29609e-06
2.14775e-06
1.29558e-06
1.38309e-06
2.01953e-06
2.1271e-06
3.41778e-05
0.0002863
0.000244441
8.63145e-05
9.29136e-06
2.65662e-06
1.53727e-06
1.62585e-06
2.21314e-06
2.27778e-06
3.84282e-05
0.000266534
0.000223793
9.22639e-05
1.19039e-05
3.37716e-06
1.8229e-06
1.82792e-06
2.4794e-06
2.44209e-06
3.97349e-05
0.00025175
0.000204445
0.000100841
1.43622e-05
4.61677e-06
2.15599e-06
2.12861e-06
2.63975e-06
2.6312e-06
3.82975e-05
0.00023595
0.000185583
0.000107396
1.87279e-05
5.21152e-06
2.5614e-06
2.36451e-06
2.92646e-06
2.84051e-06
3.55051e-05
0.000225089
0.00016697
0.000121463
2.3935e-05
6.94925e-06
3.1572e-06
2.7698e-06
3.22358e-06
3.11179e-06
3.16275e-05
0.000210883
0.000148175
0.000133293
3.47967e-05
8.45704e-06
3.99845e-06
3.07657e-06
3.33321e-06
3.45269e-06
2.79966e-05
0.000202106
0.000128874
0.000143291
5.53643e-05
1.31581e-05
5.62141e-06
3.80553e-06
3.76694e-06
3.93355e-06
2.35119e-05
0.000186883
0.0001086
0.000157291
8.24309e-05
2.15559e-05
8.42056e-06
5.15763e-06
4.81446e-06
4.83342e-06
2.04445e-05
0.000178059
8.91318e-05
0.000175713
0.000116917
3.80765e-05
1.44648e-05
7.65894e-06
6.41498e-06
6.53908e-06
1.84033e-05
0.000155583
7.46854e-05
0.000196051
0.000158274
7.00063e-05
3.06257e-05
1.41717e-05
9.48668e-06
9.14344e-06
2.1148e-05
0.000142397
0.113138
0.014414
0.0126221
0.0126185
0.0126186
0.0126185
0.0126185
0.0126221
0.0144101
0.113006
0.0392576
0.000554028
0.00017896
0.000176501
0.000176063
0.000176108
0.000176542
0.000179106
0.000554095
0.0390297
0.0165979
0.000108272
1.85108e-06
1.71039e-06
1.66821e-06
1.69416e-06
1.71685e-06
1.8741e-06
0.000106726
0.0164987
0.00831287
5.60269e-05
8.72206e-10
3.26566e-10
5.29716e-10
4.97851e-10
3.24251e-10
7.7647e-10
5.59165e-05
0.00825069
0.00477354
4.09038e-05
3.64477e-09
5.96669e-15
7.97338e-14
7.32012e-14
1.58792e-15
1.10767e-08
4.05111e-05
0.0047401
0.00305203
2.91282e-05
4.38701e-08
1.50277e-11
6.42645e-12
1.14682e-12
7.57256e-12
3.15293e-08
2.75269e-05
0.00303972
0.00212134
1.83026e-05
8.67181e-08
4.73087e-11
4.05741e-11
2.4787e-11
4.66306e-11
4.99203e-08
2.08731e-05
0.00211699
0.00155855
1.93962e-05
7.48376e-08
9.05674e-11
7.90437e-11
1.03436e-10
6.82337e-11
2.32922e-08
1.71155e-05
0.00156152
0.00120224
1.44037e-05
7.48704e-08
2.29633e-10
1.5065e-10
2.21508e-10
6.19209e-11
5.96839e-08
1.38382e-05
0.00120808
0.000960698
1.01916e-05
7.57646e-08
3.14216e-10
1.88409e-10
3.25568e-10
2.32194e-10
5.72982e-08
1.15304e-05
0.000967985
0.00078959
1.04828e-05
7.31092e-08
5.14215e-10
1.1975e-10
1.54138e-10
2.34251e-10
7.70302e-08
9.20565e-06
0.0007987
0.000663971
1.10281e-05
7.77048e-08
6.85278e-10
1.00945e-10
1.97746e-10
3.5042e-10
1.29943e-07
1.03594e-05
0.000674511
0.000568956
1.43918e-05
1.65365e-07
8.46121e-10
1.7048e-10
2.22825e-10
3.72219e-10
1.72748e-07
6.57969e-06
0.000580732
0.000495351
2.42673e-05
1.0626e-08
8.61741e-10
1.97299e-10
2.76928e-10
8.01235e-10
3.45572e-07
1.60983e-05
0.000508575
0.000436949
4.02535e-05
5.02023e-07
5.25468e-08
1.68211e-10
2.20215e-09
2.444e-09
4.89457e-07
2.81656e-05
0.000451243
0.000389625
5.25704e-05
1.34242e-06
1.06072e-08
5.24563e-10
8.22199e-10
5.68303e-09
6.19498e-07
3.76284e-05
0.000405741
0.000350522
6.14523e-05
2.42974e-06
4.77478e-08
3.54381e-08
1.66322e-09
6.66067e-09
6.82598e-07
4.03451e-05
0.000367891
0.000317548
6.72685e-05
3.29792e-06
9.72267e-08
5.08793e-09
4.90596e-09
1.18026e-08
7.65112e-07
4.29059e-05
0.000337518
0.000289263
7.35923e-05
4.54509e-06
1.80415e-07
7.94549e-09
5.64415e-09
1.81347e-08
7.91417e-07
3.98102e-05
0.000310731
0.000264426
7.73048e-05
5.67163e-06
2.74895e-07
1.69883e-08
1.02894e-08
2.29283e-08
8.05079e-07
4.07152e-05
0.000289656
0.000242208
8.36965e-05
7.32765e-06
4.36555e-07
3.42411e-08
1.42495e-08
2.72894e-08
7.77728e-07
3.92386e-05
0.00026952
0.000221797
8.8166e-05
9.44489e-06
6.71876e-07
5.31273e-08
2.34855e-08
3.699e-08
7.32849e-07
3.6586e-05
0.000254407
0.000202679
9.71822e-05
1.18273e-05
9.95929e-07
1.16299e-07
2.93019e-08
4.30797e-08
6.55948e-07
3.29645e-05
0.000237861
0.000184292
0.000104107
1.63175e-05
1.6406e-06
1.5866e-07
5.52851e-08
4.9609e-08
5.8346e-07
2.9375e-05
0.000226417
0.000166246
0.00011791
2.09748e-05
2.51729e-06
3.6293e-07
6.69205e-08
7.94879e-08
4.91224e-07
2.54351e-05
0.000211558
0.000148448
0.00012988
3.14709e-05
4.29434e-06
5.24796e-07
1.4033e-07
9.6835e-08
4.1415e-07
2.13634e-05
0.00020146
0.000130283
0.000136382
4.76402e-05
7.40009e-06
1.27054e-06
1.90749e-07
1.0123e-07
3.29673e-07
1.71505e-05
0.000186292
0.000111807
0.000146293
7.10246e-05
1.47405e-05
2.34821e-06
5.10848e-07
2.38852e-07
3.1855e-07
1.35989e-05
0.000173933
9.31741e-05
0.000157207
9.29382e-05
2.4146e-05
5.37936e-06
9.75658e-07
3.0012e-07
3.75607e-07
9.38757e-06
0.000150221
7.48006e-05
0.000168964
0.000124229
4.10128e-05
1.05499e-05
2.83417e-06
9.02659e-07
4.46093e-07
6.61629e-06
0.000135187
0.11312
0.0144153
0.0126221
0.0126187
0.0126187
0.0126186
0.0126185
0.0126221
0.0144116
0.112987
0.039202
0.00055426
0.000178531
0.000176253
0.000175818
0.000175788
0.000176116
0.000178694
0.000553471
0.0389751
0.0165423
0.000107748
1.817e-06
1.72382e-06
1.69321e-06
1.70103e-06
1.68336e-06
1.8417e-06
0.000107744
0.0164477
0.00827112
5.81149e-05
1.67003e-09
3.70317e-10
6.26079e-10
3.92645e-10
4.69953e-10
8.50931e-10
5.58992e-05
0.00821471
0.00474431
3.6252e-05
4.18302e-08
4.1659e-14
2.40287e-13
3.68633e-15
9.11394e-15
5.92962e-09
4.09328e-05
0.00471095
0.00303406
2.51254e-05
6.90345e-08
2.871e-11
5.39553e-15
1e-15
2.21404e-11
5.39022e-08
2.58996e-05
0.00301838
0.00210543
1.74788e-05
5.55237e-08
1.04945e-10
1.95926e-14
3.89217e-15
2.04645e-09
2.78007e-08
1.84195e-05
0.00210173
0.00154537
1.75243e-05
1.59947e-07
3.94461e-10
1.42431e-13
1.93296e-14
3.09835e-10
9.35717e-08
1.96274e-05
0.0015478
0.00119075
1.42065e-05
1.09423e-07
6.32224e-10
1.49723e-12
1.1521e-13
7.25883e-11
7.18869e-08
1.42319e-05
0.00119734
0.000951687
9.96019e-06
7.11383e-08
5.01421e-10
9.41156e-13
4.7319e-13
6.18644e-11
5.25526e-08
9.8238e-06
0.000959742
0.000781997
1.02587e-05
6.72252e-08
2.62282e-10
4.87927e-13
2.88654e-13
6.28472e-11
4.76584e-08
7.55296e-06
0.000791872
0.000657821
1.09474e-05
8.12959e-08
4.18138e-10
2.24122e-12
5.51286e-13
9.4417e-11
6.30723e-08
6.92217e-06
0.000669305
0.000563965
1.15357e-05
6.55371e-08
4.42538e-10
4.08032e-12
7.80322e-13
1.32189e-10
1.30547e-07
6.70603e-06
0.000576248
0.000490949
1.28726e-05
1.36696e-07
3.09488e-09
2.76198e-10
2.30352e-12
1.30973e-10
1.99186e-07
1.01745e-05
0.000504226
0.000433346
3.07507e-05
2.13374e-07
1.93171e-08
1.5807e-11
3.73863e-11
4.11106e-10
3.1163e-07
7.28552e-06
0.000447041
0.000386666
4.70705e-05
9.45652e-07
9.6576e-09
8.58718e-10
1.63657e-12
1.55446e-09
4.70836e-07
1.34433e-05
0.000401605
0.000348094
5.6153e-05
1.55962e-06
2.06162e-08
7.30299e-11
1.56727e-11
1.9244e-09
5.78962e-07
1.78882e-05
0.000363773
0.000315502
6.35045e-05
2.75802e-06
5.50535e-08
6.83163e-10
2.12479e-11
2.78557e-09
6.93486e-07
3.03184e-05
0.000333629
0.000287553
7.09146e-05
3.92397e-06
1.22413e-07
1.56726e-09
8.25743e-11
3.5442e-09
7.97288e-07
2.77478e-05
0.000307091
0.000263062
7.61903e-05
5.64039e-06
2.12872e-07
9.99032e-09
1.33578e-10
3.81966e-09
7.5954e-07
3.29658e-05
0.000286242
0.000241119
8.32892e-05
7.46948e-06
4.1965e-07
1.49604e-08
7.62293e-10
4.31891e-09
8.06841e-07
3.56743e-05
0.000266461
0.000221033
8.92438e-05
9.82351e-06
6.34468e-07
4.87509e-08
2.2543e-09
4.10077e-09
7.70759e-07
3.49817e-05
0.00025147
0.000202116
9.73958e-05
1.33334e-05
1.2403e-06
7.14401e-08
4.73092e-09
4.78177e-09
7.15071e-07
3.3062e-05
0.000235448
0.000184042
0.000106292
1.71882e-05
1.79491e-06
2.05727e-07
9.07459e-09
4.21255e-09
6.1073e-07
2.96396e-05
0.000224096
0.000165996
0.000115339
2.02992e-05
3.33691e-06
3.09752e-07
4.25848e-08
8.96255e-09
5.17631e-07
2.6051e-05
0.000209419
0.000148059
0.000126881
2.94037e-05
4.1869e-06
7.38753e-07
6.78002e-08
6.95667e-09
4.03427e-07
2.26456e-05
0.000200277
0.000129604
0.000132873
4.35774e-05
7.65797e-06
1.03797e-06
2.1245e-07
4.39562e-08
3.05795e-07
1.76406e-05
0.000183848
0.000110543
0.000142335
6.5248e-05
1.21898e-05
2.41865e-06
3.36385e-07
1.08988e-08
2.20083e-07
1.42579e-05
0.000173831
9.10955e-05
0.000154174
8.8809e-05
2.21547e-05
4.24418e-06
9.78971e-07
2.46729e-07
1.85472e-07
9.72451e-06
0.000148289
7.10074e-05
0.000165588
0.000119016
3.63599e-05
9.73336e-06
2.16045e-06
4.78715e-07
3.2637e-07
8.4675e-06
0.000134984
0.113119
0.0144154
0.0126221
0.0126186
0.0126187
0.0126187
0.0126185
0.0126221
0.0144116
0.112987
0.0392019
0.00055412
0.000178584
0.000176201
0.000175848
0.000175775
0.000176126
0.000178664
0.000553514
0.0389754
0.0165427
0.000108159
1.83595e-06
1.70945e-06
1.69681e-06
1.68889e-06
1.68791e-06
1.82633e-06
0.000107676
0.0164481
0.00827033
5.68946e-05
9.68227e-10
3.77269e-10
3.78481e-10
4.84452e-10
7.86603e-10
1.17607e-09
5.63824e-05
0.00821687
0.00474809
3.89299e-05
2.45265e-08
1.57358e-14
5.10443e-14
3.00769e-15
3.11239e-13
4.10261e-09
3.93592e-05
0.00471372
0.00303446
2.95262e-05
4.52282e-08
5.11951e-12
1.68673e-14
1e-15
7.00103e-12
4.20957e-08
2.86587e-05
0.00301892
0.00210513
2.02914e-05
7.44374e-08
3.24376e-11
3.74249e-15
1.99394e-15
1.89087e-11
3.85962e-08
2.10602e-05
0.00209998
0.0015454
2.00347e-05
9.31807e-08
1.5965e-10
2.38181e-13
1.53353e-14
4.42204e-11
6.41707e-08
1.92384e-05
0.0015495
0.00119132
1.69069e-05
8.16491e-08
1.56533e-10
1.18884e-13
1.18284e-14
2.13818e-11
6.92297e-08
1.9875e-05
0.00119744
0.000951283
1.45138e-05
9.24078e-08
4.40214e-10
2.79529e-13
7.00724e-13
3.19046e-11
7.79306e-08
1.60282e-05
0.000957426
0.000782057
1.47632e-05
9.74368e-08
4.74282e-10
9.69308e-13
5.99865e-13
3.48403e-11
7.4497e-08
1.14203e-05
0.000790332
0.000657693
1.07736e-05
9.11703e-08
7.47162e-10
1.41556e-12
7.68017e-13
4.00767e-11
6.13647e-08
1.10169e-05
0.000668299
0.000563842
2.34794e-05
1.21238e-07
8.73044e-10
6.41357e-12
2.69733e-12
7.09914e-11
1.11214e-07
6.99117e-06
0.000575394
0.000491261
3.91635e-05
3.44324e-07
2.95509e-08
2.53601e-10
7.80905e-13
9.99307e-11
1.61615e-07
1.5169e-05
0.000504051
0.000433463
3.56666e-05
5.42112e-07
5.66383e-09
8.57073e-10
1.77756e-11
1.34653e-10
2.94886e-07
2.41654e-05
0.000447191
0.000386698
4.22596e-05
1.12958e-06
9.9885e-09
3.19677e-11
2.57404e-11
1.74529e-10
3.26904e-07
2.90319e-05
0.000401941
0.000348061
4.82711e-05
2.06133e-06
3.66569e-08
3.3937e-10
3.87125e-11
2.62307e-10
4.4932e-07
3.16348e-05
0.000364071
0.000315527
5.68554e-05
2.90692e-06
7.04663e-08
7.29707e-10
7.36345e-11
5.15116e-10
5.30027e-07
3.24784e-05
0.000333666
0.000287575
6.54131e-05
4.0485e-06
1.33994e-07
4.1202e-09
1.47939e-10
3.15913e-10
5.7076e-07
3.21864e-05
0.000306882
0.000263028
7.20478e-05
5.00922e-06
2.16288e-07
4.86008e-09
2.26764e-10
6.95315e-10
6.31797e-07
3.32329e-05
0.000285869
0.000241089
7.90368e-05
6.67978e-06
3.34801e-07
1.83108e-08
7.09559e-10
1.38326e-09
5.78379e-07
2.93972e-05
0.000265809
0.000220911
8.41175e-05
8.33347e-06
5.27906e-07
1.84375e-08
9.77374e-10
2.01736e-09
6.03151e-07
2.84223e-05
0.000250854
0.000202016
9.27888e-05
1.10444e-05
8.1446e-07
8.01682e-08
5.53968e-09
2.68686e-09
5.85778e-07
2.92934e-05
0.000234804
0.000183747
9.93533e-05
1.48398e-05
1.37753e-06
1.00172e-07
9.07688e-09
3.135e-09
5.28343e-07
2.78472e-05
0.000223735
0.000165789
0.000113565
1.91116e-05
2.08956e-06
2.77442e-07
1.46905e-08
4.81964e-09
4.56388e-07
2.49108e-05
0.000209239
0.000147914
0.00012587
2.78322e-05
3.85248e-06
4.15416e-07
6.87263e-08
4.3257e-09
3.67283e-07
2.19368e-05
0.000199795
0.000129659
0.000134552
4.61935e-05
6.36547e-06
1.08576e-06
1.05146e-07
2.55301e-08
2.81264e-07
1.72865e-05
0.000184442
0.000110725
0.000144305
6.82989e-05
1.36929e-05
2.01007e-06
4.0739e-07
3.7332e-08
2.00711e-07
1.42835e-05
0.000172807
9.13661e-05
0.000156965
9.27304e-05
2.31054e-05
4.95019e-06
7.67919e-07
1.87453e-07
1.72218e-07
9.8481e-06
0.000148657
7.14453e-05
0.000168631
0.000123466
4.03115e-05
9.73148e-06
2.55501e-06
5.07003e-07
3.27361e-07
8.51639e-06
0.00013479
0.113137
0.014414
0.012622
0.0126185
0.0126185
0.0126186
0.0126185
0.012622
0.0144102
0.113006
0.0392566
0.000554399
0.000179029
0.000176583
0.00017614
0.000176253
0.000176578
0.000179093
0.000553996
0.0390302
0.0165963
0.000107607
1.91396e-06
1.71787e-06
1.68232e-06
1.74431e-06
1.7235e-06
1.86402e-06
0.000106848
0.0165011
0.00831136
5.69021e-05
3.39392e-09
4.48948e-10
4.4582e-10
3.47518e-10
3.232e-10
8.45591e-10
5.59782e-05
0.00825537
0.00478037
3.8477e-05
1.59232e-08
3.21213e-14
1.02851e-14
2.0335e-15
1.10117e-15
4.74367e-09
4.05811e-05
0.00474495
0.00305809
2.98805e-05
7.65161e-08
3.54894e-11
3.32714e-11
1.51913e-13
1.56658e-12
7.24036e-08
2.86677e-05
0.00304027
0.00212305
1.97471e-05
4.92577e-08
4.2215e-11
1.78979e-11
2.01091e-11
6.837e-11
1.82699e-08
1.76536e-05
0.00211944
0.00155975
2.06691e-05
1.01732e-07
2.6615e-10
1.0732e-11
1.7794e-11
1.97378e-10
1.22754e-07
1.85223e-05
0.00156222
0.00120243
1.75655e-05
1.10119e-07
4.61448e-10
6.86547e-11
7.42633e-11
2.85682e-10
6.66848e-08
1.30481e-05
0.00120877
0.000960027
1.49447e-05
9.37481e-08
5.17631e-10
1.02526e-10
1.4065e-10
2.3407e-10
6.89824e-08
1.06874e-05
0.00096853
0.000789339
1.61697e-05
8.75516e-08
7.62403e-10
2.04337e-10
2.09261e-10
2.3828e-10
6.96927e-08
9.16858e-06
0.000798989
0.000663329
1.02596e-05
1.13864e-07
9.41837e-10
2.23499e-10
5.47249e-10
1.05004e-09
7.52625e-08
1.01503e-05
0.000674613
0.000568842
3.05282e-05
1.46724e-07
1.61031e-09
9.32214e-10
1.55201e-09
1.84033e-09
1.51084e-07
6.8485e-06
0.000580809
0.000495211
2.70416e-05
1.81402e-07
6.55217e-10
3.036e-09
4.50145e-09
3.78705e-09
2.90207e-07
1.53572e-05
0.000508696
0.000436751
3.47793e-05
3.19124e-07
6.27519e-09
4.55548e-09
6.23974e-09
7.3299e-09
4.74479e-07
2.73169e-05
0.000451384
0.000389486
4.08158e-05
7.6665e-07
4.17182e-09
7.16611e-09
9.53344e-09
1.24146e-08
6.25364e-07
3.58849e-05
0.000405892
0.000350374
4.99083e-05
1.49897e-06
2.34517e-08
8.62612e-09
1.19272e-08
1.6125e-08
7.37445e-07
4.13739e-05
0.000368029
0.000317391
5.93278e-05
2.8159e-06
8.48449e-08
1.31674e-08
1.47475e-08
2.13035e-08
7.54775e-07
4.20863e-05
0.000337616
0.000288991
6.74508e-05
3.87482e-06
1.48458e-07
1.75713e-08
1.56023e-08
2.61512e-08
8.27694e-07
4.28367e-05
0.000310862
0.000264186
7.63611e-05
5.58141e-06
2.79104e-07
2.86628e-08
2.18405e-08
2.83982e-08
8.49157e-07
4.17201e-05
0.000289753
0.000242019
8.2602e-05
7.47096e-06
4.99885e-07
3.90317e-08
2.49367e-08
3.60817e-08
8.42499e-07
3.94691e-05
0.000269595
0.000221658
9.1439e-05
9.67477e-06
7.78424e-07
9.55553e-08
2.7886e-08
4.01812e-08
7.75105e-07
3.62192e-05
0.000254319
0.000202745
0.000101564
1.25056e-05
1.32055e-06
1.25856e-07
4.17453e-08
4.14152e-08
7.093e-07
3.32009e-05
0.000238002
0.000184491
0.000108931
1.67479e-05
1.76121e-06
2.85303e-07
4.35013e-08
6.4108e-08
6.21526e-07
2.94881e-05
0.000226459
0.00016649
0.000119515
2.0904e-05
2.84978e-06
3.61205e-07
1.04454e-07
7.40086e-08
5.28084e-07
2.57464e-05
0.000211635
0.000148647
0.000129685
3.01203e-05
4.01124e-06
7.9951e-07
1.20903e-07
6.86512e-08
4.3996e-07
2.22603e-05
0.00020242
0.000130582
0.000137217
4.81113e-05
7.53586e-06
1.06219e-06
2.64158e-07
1.2715e-07
3.4633e-07
1.76518e-05
0.000185927
0.000112116
0.000146252
6.98452e-05
1.43425e-05
2.64684e-06
4.17366e-07
1.39015e-07
3.24032e-07
1.38272e-05
0.000175493
9.35556e-05
0.000158118
9.38473e-05
2.38471e-05
4.81301e-06
1.11824e-06
3.80401e-07
3.29093e-07
9.63479e-06
0.00015206
7.51439e-05
0.000170302
0.000124709
4.18032e-05
1.09486e-05
2.57767e-06
7.18606e-07
5.23039e-07
8.55666e-06
0.000133685
0.113212
0.0144226
0.0126256
0.012622
0.0126221
0.0126222
0.0126222
0.0126256
0.0144188
0.113083
0.0394228
0.000559094
0.00018161
0.00017903
0.000178719
0.000178756
0.000179171
0.000181806
0.000558677
0.0391958
0.016737
0.000112024
2.05708e-06
1.8484e-06
1.85143e-06
1.85798e-06
1.88014e-06
2.08583e-06
0.000110489
0.0166396
0.00842476
5.16574e-05
1.42351e-09
8.20061e-10
8.51333e-10
9.39807e-10
8.62688e-10
2.27672e-09
5.67724e-05
0.00835873
0.00485626
3.62392e-05
6.15982e-08
2.50746e-08
5.4417e-09
6.66703e-09
3.21907e-09
7.97668e-08
3.76931e-05
0.00482143
0.0031096
2.36995e-05
1.24848e-07
6.96863e-08
6.60366e-08
5.52269e-08
4.65447e-08
1.16102e-07
2.57071e-05
0.0030931
0.00215074
1.94784e-05
7.00573e-08
4.86538e-08
4.83966e-08
4.91794e-08
8.64004e-08
2.28102e-08
1.61745e-05
0.0021511
0.00158113
1.52866e-05
1.28418e-07
5.69436e-08
2.53492e-08
3.57062e-08
4.40311e-08
3.36637e-07
1.90465e-05
0.00158244
0.00121641
1.31829e-05
1.28088e-07
4.67043e-08
6.14005e-08
9.38229e-08
9.82003e-08
1.84395e-07
1.50145e-05
0.00122153
0.000970616
1.35533e-05
1.12345e-07
7.4786e-08
5.41128e-08
7.90814e-08
8.13289e-08
1.5089e-07
1.21521e-05
0.00097691
0.000797133
1.22589e-05
1.34066e-07
1.10633e-07
7.08182e-08
8.31791e-08
6.11169e-08
1.41217e-07
1.25708e-05
0.000804196
0.000670312
2.02641e-05
1.37417e-07
1.48424e-07
1.00242e-07
1.63137e-07
1.33605e-07
1.49379e-07
1.04857e-05
0.000677655
0.000574316
1.78991e-05
3.10651e-07
2.63827e-07
1.90892e-07
2.97002e-07
1.36516e-07
2.23466e-07
1.35251e-05
0.000582076
0.000500032
3.55994e-05
6.17734e-07
1.47654e-07
5.47825e-07
6.05655e-07
3.4666e-07
2.26725e-07
2.448e-05
0.000508493
0.000441165
5.0007e-05
1.43712e-06
6.39328e-07
6.843e-07
8.76938e-07
7.90775e-07
6.37588e-07
3.26892e-05
0.000450252
0.000393421
5.869e-05
2.32636e-06
1.03763e-06
9.81496e-07
1.12311e-06
1.08226e-06
9.74966e-07
3.83117e-05
0.000404039
0.000353969
6.39339e-05
3.36129e-06
1.42974e-06
1.14334e-06
1.30359e-06
1.44814e-06
1.43777e-06
4.07152e-05
0.00036575
0.000320682
6.91338e-05
4.45475e-06
1.94688e-06
1.40031e-06
1.44541e-06
1.73438e-06
1.87024e-06
4.37748e-05
0.00033499
0.000292102
7.27607e-05
5.58533e-06
2.441e-06
1.55653e-06
1.61929e-06
1.92249e-06
2.19495e-06
3.97494e-05
0.000308085
0.000266979
7.80649e-05
6.92036e-06
2.78553e-06
1.90971e-06
1.8068e-06
2.2357e-06
2.59189e-06
3.92669e-05
0.000286835
0.00024454
8.34972e-05
8.57996e-06
3.34196e-06
2.19798e-06
2.00295e-06
2.39274e-06
2.8868e-06
4.08222e-05
0.000266846
0.000223864
9.11087e-05
1.06727e-05
3.79539e-06
2.49531e-06
2.14455e-06
2.67805e-06
3.05142e-06
4.11388e-05
0.000252032
0.000204569
0.000101157
1.40169e-05
4.55967e-06
2.98811e-06
2.44037e-06
2.7779e-06
3.2111e-06
3.91158e-05
0.000236119
0.000185875
0.000111903
1.87351e-05
5.54946e-06
3.32852e-06
2.64911e-06
3.24532e-06
3.3699e-06
3.66848e-05
0.000225419
0.000167585
0.000128018
2.54173e-05
6.79267e-06
4.44457e-06
3.25258e-06
3.49785e-06
3.6379e-06
3.29116e-05
0.000211406
0.000149172
0.000139532
4.08584e-05
9.40927e-06
4.74571e-06
3.4187e-06
3.53689e-06
3.86986e-06
2.96353e-05
0.000202901
0.000130082
0.000149068
6.088e-05
1.41809e-05
5.70099e-06
4.02822e-06
3.96047e-06
4.39483e-06
2.50529e-05
0.000188296
0.000110297
0.000164048
8.98621e-05
2.39916e-05
8.43759e-06
5.19588e-06
4.71389e-06
5.01964e-06
2.26816e-05
0.000179202
9.09503e-05
0.000179806
0.000121208
3.97329e-05
1.39003e-05
7.57965e-06
6.35067e-06
6.6287e-06
1.95675e-05
0.000157655
7.62898e-05
0.000200296
0.000162231
7.24569e-05
2.80057e-05
1.27101e-05
8.95554e-06
8.82287e-06
2.2449e-05
0.000146003
0.113544
0.0163776
0.0144191
0.0144106
0.014412
0.014412
0.0144106
0.0144193
0.0163749
0.113423
0.0396116
0.000981744
0.000558738
0.000554109
0.000554223
0.000554348
0.000554126
0.000558954
0.000983602
0.039383
0.0168511
0.000363588
0.000110763
0.000107463
0.000107403
0.000106948
0.00010734
0.00011084
0.000361746
0.0167243
0.008515
0.000218618
5.66162e-05
5.53346e-05
5.59574e-05
5.82863e-05
5.64967e-05
5.6936e-05
0.000213971
0.00842334
0.00491647
0.00016463
3.89964e-05
4.29572e-05
4.29421e-05
3.62142e-05
3.9346e-05
3.77828e-05
0.000163208
0.00486187
0.00313104
0.000160026
2.78634e-05
2.97584e-05
2.92615e-05
2.51085e-05
3.26769e-05
2.61719e-05
0.000159579
0.00310544
0.00215533
0.00017144
1.68058e-05
1.80376e-05
2.08245e-05
1.73802e-05
2.3988e-05
1.83117e-05
0.000172461
0.00214408
0.00156728
0.00013795
1.9223e-05
1.594e-05
1.71765e-05
1.71858e-05
1.7201e-05
2.07362e-05
0.000144301
0.0015667
0.00119779
0.000208755
1.49203e-05
1.44878e-05
1.3686e-05
1.45887e-05
1.57663e-05
1.5543e-05
0.000207806
0.00120167
0.000951595
0.000217387
9.40926e-06