/*--------------------------------*- C++ -*----------------------------------*\
| =========                 |                                                 |
| \\      /  F ield         | OpenFOAM: The Open Source CFD Toolbox           |
|  \\    /   O peration     | Version:  4.1                                   |
|   \\  /    A nd           | Web:      www.OpenFOAM.org                      |
|    \\/     M anipulation  |                                                 |
\*---------------------------------------------------------------------------*/
FoamFile
{
    version     2.0;
    format      ascii;
    class       volScalarField;
    location    "1800";
    object      nut;
}
// * * * * * * * * * * * * * * * * * * * * * * * * * * * * * * * * * * * * * //

dimensions      [0 2 -1 0 0 0 0];

internalField   nonuniform List<scalar> 
12000
(
0.00381761
0.00371271
0.00371002
0.00370859
0.00370822
0.00370818
0.00370846
0.00370982
0.00371763
0.00382343
0.00226242
0.00222011
0.00223229
0.00222832
0.00222683
0.00222681
0.00222817
0.00223076
0.0022168
0.0022569
0.00146065
0.00144478
0.00145545
0.00144982
0.00144773
0.00144779
0.00145003
0.00145503
0.00144499
0.0014609
0.00102957
0.00103725
0.00102742
0.00101951
0.00101762
0.00101711
0.00101971
0.00102886
0.0010384
0.001031
0.000776016
0.000796113
0.000777867
0.000768015
0.000764501
0.000766889
0.000769493
0.000779896
0.000799241
0.000780105
0.000616689
0.000643784
0.000623149
0.000612038
0.000611071
0.000611259
0.00061346
0.000623284
0.000639785
0.000620084
0.000508771
0.00053251
0.000520019
0.000512616
0.000509933
0.000511285
0.000513387
0.00051964
0.000535935
0.000513147
0.000433548
0.000452843
0.00044719
0.000441697
0.000439301
0.000438563
0.000440299
0.000446106
0.000452646
0.000436877
0.00037853
0.000396134
0.000392249
0.000389511
0.000385165
0.000387327
0.000389344
0.000390904
0.000394446
0.000381175
0.000336661
0.0003512
0.000351824
0.000348703
0.000346237
0.000347045
0.000348741
0.000350529
0.000350407
0.000339289
0.000304091
0.000317011
0.00031832
0.000316575
0.000314808
0.000315228
0.000316763
0.000318356
0.000316614
0.000306749
0.00027791
0.000289304
0.000291995
0.00029072
0.000289432
0.000289638
0.000291026
0.00029243
0.000290106
0.000280835
0.000256524
0.000267374
0.000270704
0.000269377
0.00026824
0.000268358
0.00026963
0.000271423
0.00026825
0.000259746
0.000238535
0.000248818
0.000252728
0.000251559
0.000251004
0.00025102
0.000252309
0.00025364
0.000249824
0.000242233
0.000223171
0.000233036
0.00023759
0.000236814
0.000236118
0.000236268
0.0002375
0.000238742
0.000234518
0.000227594
0.00020991
0.000219732
0.000224766
0.000223896
0.000223571
0.000223676
0.000224801
0.000226191
0.000221696
0.000215247
0.00019827
0.000208339
0.000213609
0.000213006
0.000212771
0.00021318
0.000214323
0.000215367
0.000210854
0.000204803
0.000187834
0.000198271
0.000203826
0.00020348
0.000203486
0.000203948
0.000204971
0.000206125
0.000201543
0.000195832
0.000178316
0.00018951
0.000195202
0.000195203
0.000195231
0.0001958
0.000196998
0.000198107
0.000193831
0.000188266
0.000169349
0.00018128
0.000187458
0.000187898
0.000188138
0.000188871
0.00018991
0.000191243
0.000187121
0.000181657
0.000160667
0.000173601
0.000180401
0.000181313
0.00018173
0.00018258
0.000183827
0.000185339
0.000181482
0.000176279
0.000151921
0.000166166
0.000173841
0.000175354
0.000176087
0.000177263
0.000178518
0.000180167
0.000176815
0.000171459
0.00014267
0.000158508
0.000167568
0.000169796
0.000170729
0.00017207
0.000173717
0.000175793
0.000173197
0.000167978
0.000132246
0.000150439
0.000161359
0.000164595
0.000166089
0.000167829
0.000169572
0.000171898
0.000169969
0.000164805
0.000119643
0.000140974
0.00015471
0.000159343
0.000161237
0.00016329
0.000165694
0.000168773
0.00016782
0.000163181
0.000102238
0.000129387
0.000147262
0.000154086
0.000157093
0.000159733
0.000162177
0.000165838
0.000165717
0.000161796
7.62907e-05
0.000112569
0.000137759
0.000147259
0.000151764
0.000155126
0.000158807
0.000163647
0.000164771
0.000161533
6.16503e-05
9.23447e-05
0.00012371
0.000140285
0.000146128
0.000151324
0.000154342
0.000161207
0.000163114
0.000164194
7.06371e-05
8.62712e-05
0.000102032
0.000118031
0.000137132
0.000144271
0.000151798
0.000156301
0.00016654
0.000160067
8.95101e-05
0.000102533
0.000104249
0.000116562
0.000109095
0.000128569
0.000138758
0.0001562
0.000158127
0.000170916
0.00371271
2.36702e-05
1.86225e-05
1.8609e-05
1.8614e-05
1.8614e-05
1.86091e-05
1.86225e-05
2.36408e-05
0.00370596
0.00222007
4.398e-07
2.20801e-07
2.22751e-07
2.22725e-07
2.2266e-07
2.22606e-07
2.21167e-07
4.36776e-07
0.00218107
0.00144469
2.11216e-07
3.06121e-08
2.82085e-08
2.93764e-08
2.95266e-08
2.89122e-08
3.09367e-08
2.09912e-07
0.00141398
0.0010371
3.09009e-07
1.91371e-08
1.74686e-08
1.89337e-08
1.88619e-08
1.84346e-08
1.96298e-08
3.01244e-07
0.00100735
0.000795847
7.42538e-07
1.88917e-08
2.6555e-08
2.17955e-08
2.44826e-08
2.40765e-08
1.81282e-08
8.18984e-07
0.000775941
0.000643623
2.27044e-06
2.37547e-08
1.60092e-08
2.34791e-08
1.55515e-08
1.5071e-08
2.34984e-08
1.8055e-06
0.000624398
0.000532225
5.89651e-06
3.31817e-08
1.09118e-08
4.67378e-08
1.29065e-08
1.24647e-08
3.63713e-08
9.50175e-06
0.000525961
0.000452459
9.06587e-06
4.51633e-08
7.66612e-09
4.20855e-08
1.31176e-08
1.1895e-08
7.6532e-08
1.18766e-05
0.000447139
0.000395659
3.28724e-05
4.02017e-08
9.3078e-09
4.23002e-08
1.35309e-08
1.39877e-08
7.73738e-08
3.92918e-05
0.000390501
0.000350571
4.78983e-05
5.8961e-08
1.31425e-08
3.65054e-08
1.58045e-08
1.74398e-08
8.74275e-08
5.73528e-05
0.000348709
0.000316317
7.52552e-05
8.18564e-08
2.91861e-08
3.39532e-08
2.94873e-08
3.37458e-08
8.01952e-08
8.46593e-05
0.000316686
0.000288458
9.7543e-05
1.59041e-07
6.19294e-08
9.48786e-08
8.7077e-08
1.01359e-07
8.57102e-08
0.000172724
0.000290945
0.000266319
9.06579e-05
3.59128e-07
1.99995e-07
4.83719e-08
2.96211e-08
5.4474e-08
7.64622e-07
0.000135237
0.000269567
0.00024752
8.23255e-05
1.41118e-06
1.28382e-06
1.24617e-06
1.48821e-06
1.81918e-06
9.25609e-07
9.78835e-05
0.000251326
0.000231474
8.51394e-05
3.53755e-06
6.83756e-06
1.43728e-06
1.48722e-06
1.78702e-06
4.8541e-06
9.08805e-05
0.000236044
0.000217851
9.09927e-05
9.35762e-06
7.92241e-06
3.82084e-06
4.05806e-06
4.65334e-06
1.28103e-05
8.96607e-05
0.000223268
0.000206096
9.78989e-05
1.78185e-05
1.3397e-05
7.36457e-06
1.44664e-05
1.56997e-05
2.04515e-05
8.86573e-05
0.000212224
0.000195593
0.000103919
2.58742e-05
1.94107e-05
1.76336e-05
1.64058e-05
1.77836e-05
2.99624e-05
8.90735e-05
0.000202822
0.000186368
0.000115262
3.45101e-05
2.52553e-05
2.03961e-05
2.13242e-05
3.16129e-05
3.07138e-05
9.46359e-05
0.000194574
0.000177594
0.000119289
4.3076e-05
3.76962e-05
2.54473e-05
2.62367e-05
3.34473e-05
3.46135e-05
8.6912e-05
0.000187513
0.000169377
0.000126535
5.47319e-05
4.32684e-05
3.36218e-05
3.63596e-05
4.43236e-05
4.19118e-05
8.82035e-05
0.000181051
0.000161399
0.000133424
6.56333e-05
5.06206e-05
4.20069e-05
4.58693e-05
4.71878e-05
4.88458e-05
9.65186e-05
0.000176066
0.000153352
0.000149055
7.38632e-05
5.83398e-05
5.24546e-05
5.29358e-05
5.45217e-05
5.57116e-05
0.000100659
0.000171324
0.000145082
0.0001551
9.47616e-05
6.56329e-05
5.89463e-05
5.89632e-05
5.992e-05
6.0476e-05
0.00010092
0.000167878
0.000136046
0.000165079
0.000109195
7.35457e-05
6.38409e-05
6.13374e-05
6.33e-05
6.51605e-05
9.8608e-05
0.000164427
0.000125574
0.000177381
0.000139487
8.613e-05
7.15554e-05
6.69977e-05
6.88954e-05
6.73046e-05
9.33857e-05
0.000160573
0.000112836
0.000189525
0.000154678
0.000100041
7.99004e-05
7.21056e-05
7.16892e-05
7.31789e-05
9.20624e-05
0.000156823
9.73267e-05
0.000206438
0.000191322
0.000128871
9.51465e-05
8.10446e-05
8.12239e-05
7.94878e-05
9.27918e-05
0.000153418
8.7634e-05
0.000219354
0.000213097
0.000157144
0.00012429
9.86127e-05
9.16129e-05
9.27659e-05
9.43834e-05
0.00015325
8.91028e-05
0.000239067
0.000243905
0.000207265
0.000150494
0.000122003
0.000110532
0.000108482
0.00011802
0.000135942
0.00371002
1.86234e-05
1.46528e-05
1.46528e-05
1.4654e-05
1.46539e-05
1.46522e-05
1.4653e-05
1.86108e-05
0.00369538
0.00223224
2.20986e-07
3.66781e-08
3.5859e-08
3.58953e-08
3.59755e-08
3.60929e-08
3.6705e-08
2.21317e-07
0.00218742
0.00145553
3.13748e-08
2.18995e-11
2.45673e-11
2.42745e-11
2.48967e-11
2.47766e-11
2.17047e-11
2.99463e-08
0.00142468
0.00102768
2.21824e-08
2.13078e-15
9.41605e-16
9.31639e-16
1.2936e-15
1.00647e-15
1.88071e-15
1.83518e-08
0.00100045
0.000777467
1.25974e-08
9.76813e-13
6.80706e-13
5.31121e-13
2.62574e-13
9.19111e-14
1.8377e-13
2.21117e-08
0.000757365
0.000624588
9.84716e-09
4.42013e-12
1.7969e-12
1.00077e-12
2.50057e-12
6.774e-12
5.40176e-12
1.31264e-08
0.000608398
0.000520282
1.03423e-08
7.77664e-12
3.3328e-12
3.85076e-12
4.08446e-12
1.80494e-11
4.12034e-11
9.84241e-09
0.000511057
0.000447477
1.23538e-08
4.13048e-11
4.14053e-12
5.68216e-12
9.78052e-12
2.10069e-11
2.64777e-11
6.57086e-09
0.000442641
0.000392825
1.23549e-08
6.10185e-11
5.36589e-12
1.93538e-11
1.60743e-11
2.44694e-11
2.80468e-10
1.13583e-08
0.000389613
0.000350837
2.57855e-08
1.47315e-10
1.56818e-11
2.59084e-11
2.18327e-11
6.06546e-11
2.72395e-10
1.10783e-08
0.000349714
0.000317641
5.78699e-08
3.49617e-10
3.41343e-11
1.14463e-11
2.25427e-11
8.30766e-11
1.87696e-10
1.06727e-08
0.00031808
0.000291011
2.03844e-07
8.43048e-10
8.41015e-11
2.70877e-11
4.20383e-11
1.66301e-10
2.45764e-10
4.40721e-08
0.000292137
0.000269406
1.5007e-06
6.49583e-10
1.53947e-10
3.83158e-11
9.49563e-11
3.85947e-10
1.25843e-09
1.2232e-07
0.000270673
0.000251085
1.82269e-06
6.27893e-09
2.22025e-10
1.51731e-10
4.3673e-10
3.83693e-10
4.00868e-09
3.08944e-07
0.000252885
0.000235851
8.08433e-06
1.5384e-07
6.07383e-10
1.64694e-10
5.88872e-11
1.5587e-08
4.50257e-08
2.14475e-06
0.000237767
0.000222682
2.04496e-05
4.98481e-07
5.10019e-09
1.29395e-08
8.94549e-09
1.10394e-07
2.28707e-07
9.52778e-06
0.000225166
0.000211128
3.47232e-05
1.22032e-06
1.21969e-07
2.99369e-08
1.20372e-07
3.4447e-07
5.56519e-07
1.29364e-05
0.000214038
0.000200884
4.79549e-05
2.63299e-06
2.94062e-07
1.58359e-07
2.49687e-07
8.04746e-07
8.6995e-07
1.47869e-05
0.000204636
0.000191693
5.98991e-05
5.2353e-06
6.05016e-07
4.17502e-07
5.82843e-07
1.18365e-06
1.47213e-06
1.80948e-05
0.000196279
0.000183226
6.88497e-05
7.13539e-06
1.49764e-06
9.33553e-07
9.15871e-07
1.67583e-06
1.98174e-06
2.16571e-05
0.000189339
0.000175326
8.09228e-05
9.97301e-06
2.53346e-06
1.38001e-06
1.44111e-06
2.03758e-06
2.38841e-06
3.17819e-05
0.000182743
0.000167714
8.96162e-05
1.32813e-05
3.83857e-06
1.89177e-06
1.94077e-06
2.75381e-06
2.77273e-06
3.85704e-05
0.000177695
0.000160311
0.000100968
1.63652e-05
6.59285e-06
2.46673e-06
2.60722e-06
3.31264e-06
3.18087e-06
4.05315e-05
0.000172193
0.00015276
0.000107587
2.14876e-05
6.85285e-06
3.08605e-06
2.98738e-06
3.88158e-06
3.57102e-06
4.00304e-05
0.000168323
0.000144917
0.000126051
2.79914e-05
1.01784e-05
4.02219e-06
3.75563e-06
4.52231e-06
4.05713e-06
3.66923e-05
0.000162914
0.000136452
0.000135952
4.27373e-05
1.08367e-05
5.18501e-06
3.99623e-06
4.49076e-06
4.58215e-06
3.41212e-05
0.000159764
0.000127231
0.000147709
6.92294e-05
1.80174e-05
7.71468e-06
5.11592e-06
4.88258e-06
5.22987e-06
2.81767e-05
0.000152594
0.000116724
0.000163671
9.77537e-05
2.8656e-05
1.13055e-05
6.97191e-06
6.47251e-06
6.4111e-06
2.56512e-05
0.000150922
0.000106016
0.000181601
0.000138292
4.90145e-05
2.03187e-05
1.05323e-05
8.62942e-06
8.69758e-06
2.12502e-05
0.000137609
9.68527e-05
0.000200538
0.000173323
8.91279e-05
4.18759e-05
1.94148e-05
1.23419e-05
1.1405e-05
2.14409e-05
0.000137793
0.00370859
1.861e-05
1.46529e-05
1.46524e-05
1.46538e-05
1.46536e-05
1.46522e-05
1.46527e-05
1.85979e-05
0.00369359
0.00222828
2.22661e-07
3.58742e-08
3.53419e-08
3.53306e-08
3.53004e-08
3.53629e-08
3.60079e-08
2.23301e-07
0.00218418
0.00145004
2.99342e-08
2.4975e-11
2.69006e-11
2.8106e-11
2.70923e-11
2.66898e-11
2.4295e-11
2.69008e-08
0.00142084
0.00101991
1.87949e-08
1.54406e-15
2.86796e-16
2.473e-16
2.27255e-16
2.84913e-16
1.65718e-15
1.71507e-08
0.000994267
0.000767885
2.52585e-08
7.68281e-13
6.18546e-21
3.71021e-22
2.70986e-22
2.92447e-22
1.12039e-13
2.29759e-08
0.000749007
0.000612635
1.71665e-08
2.55937e-12
1.41199e-17
1.66452e-17
3.11811e-17
1.90573e-17
1.83717e-12
1.42811e-08
0.000600997
0.000514159
1.10393e-08
9.32113e-12
2.93031e-16
2.25939e-16
1.5686e-15
1.92688e-15
1.06018e-11
1.27206e-08
0.000506115
0.000440734
1.77181e-08
1.44875e-11
5.44144e-15
1.66754e-15
9.5414e-15
9.07226e-15
9.50848e-11
1.20018e-08
0.000436156
0.000388519
1.63458e-08
2.33341e-11
3.69357e-14
1.17104e-14
3.92301e-14
2.93231e-14
1.33805e-10
1.30489e-08
0.000387152
0.000348048
1.53515e-08
4.84503e-11
1.09143e-13
3.71775e-14
1.00231e-13
4.92765e-13
1.216e-10
1.6961e-08
0.000347465
0.000315548
3.80194e-08
7.64678e-11
3.69314e-13
1.38466e-14
7.62502e-14
6.68956e-13
6.17588e-10
2.52456e-08
0.000316259
0.000289371
9.07366e-08
1.55355e-10
8.42912e-13
2.12933e-14
5.77738e-13
2.81334e-12
4.05763e-09
6.89328e-08
0.000290918
0.000267822
3.18094e-07
1.3715e-09
1.56336e-12
9.41957e-14
1.39275e-12
3.37825e-12
9.93511e-09
5.83128e-08
0.000269914
0.000249814
1.71761e-06
6.26396e-12
1.69991e-12
2.01813e-13
2.82168e-12
1.69816e-11
7.72324e-08
6.95658e-07
0.000252633
0.00023468
7.89335e-06
2.16918e-08
6.33013e-09
2.03812e-13
2.15558e-10
2.16906e-10
2.28516e-07
3.91621e-06
0.000238034
0.000221558
1.94031e-05
2.43663e-07
3.73687e-10
2.73893e-12
3.17672e-11
8.93121e-10
3.55012e-07
1.15594e-05
0.000225766
0.00021008
3.3736e-05
1.01916e-06
1.00769e-08
1.51861e-08
1.66355e-10
1.33206e-09
5.10991e-07
1.9079e-05
0.000215043
0.000199928
4.59438e-05
2.04359e-06
4.41522e-08
5.65103e-10
1.06138e-09
4.24946e-09
6.84841e-07
2.78698e-05
0.00020605
0.000190796
5.8556e-05
3.69059e-06
1.40557e-07
1.12423e-09
1.42072e-09
1.20127e-08
7.71493e-07
2.86331e-05
0.00019767
0.000182423
6.48507e-05
5.04818e-06
2.42402e-07
6.92714e-09
4.47335e-09
1.8486e-08
8.35923e-07
3.43911e-05
0.000190861
0.000174591
7.58884e-05
7.26194e-06
4.63392e-07
2.23593e-08
8.28765e-09
2.22406e-08
8.4465e-07
3.66348e-05
0.000184224
0.000167076
8.24425e-05
9.67303e-06
7.16286e-07
4.92159e-08
2.00393e-08
3.83391e-08
8.35556e-07
3.63456e-05
0.000179098
0.000159719
9.53212e-05
1.27059e-05
1.15011e-06
1.2593e-07
3.21763e-08
5.16196e-08
7.8028e-07
3.45205e-05
0.00017334
0.000152288
0.00010286
1.80811e-05
1.90679e-06
1.83487e-07
6.57868e-08
7.11511e-08
7.23327e-07
3.18422e-05
0.00016907
0.000144612
0.000121968
2.39881e-05
3.04834e-06
4.1983e-07
8.4006e-08
1.08804e-07
6.36383e-07
2.89091e-05
0.000163689
0.000136585
0.000132052
3.90743e-05
5.23521e-06
6.34673e-07
1.69327e-07
1.63957e-07
5.42479e-07
2.44962e-05
0.000159424
0.000127952
0.000141006
5.73713e-05
9.79619e-06
1.60875e-06
2.43521e-07
9.03774e-08
4.48369e-07
2.05116e-05
0.000153311
0.000118377
0.000153087
8.50502e-05
1.92689e-05
3.15714e-06
6.123e-07
5.23556e-07
4.0967e-07
1.58252e-05
0.000150716
0.000108105
0.000166438
0.000109978
3.1838e-05
7.32741e-06
1.34219e-06
2.64681e-07
4.85193e-07
1.09698e-05
0.000133739
9.65467e-05
0.000179476
0.000147951
5.28771e-05
1.45308e-05
3.78653e-06
1.43297e-06
5.92638e-07
5.83624e-06
0.000147124
0.00370822
1.8615e-05
1.46539e-05
1.46544e-05
1.46558e-05
1.46554e-05
1.46536e-05
1.46539e-05
1.86029e-05
0.00369322
0.00222677
2.23002e-07
3.59948e-08
3.51763e-08
3.51562e-08
3.51653e-08
3.53489e-08
3.60414e-08
2.23009e-07
0.00218282
0.00144754
2.89176e-08
2.50272e-11
2.55968e-11
2.65037e-11
2.6788e-11
2.74807e-11
2.47715e-11
2.9141e-08
0.00141931
0.00101732
2.22076e-08
1.03326e-15
2.21425e-16
2.21148e-16
2.47232e-16
2.40774e-16
1.25225e-15
1.83432e-08
0.000993278
0.000765691
1.20768e-08
4.45731e-13
4.7326e-22
4.84313e-22
6.27337e-21
1.20002e-22
7.11936e-14
2.48315e-08
0.00074695
0.000612458
9.11532e-09
1.42872e-12
6.58234e-17
9.59962e-25
2.63705e-20
2.08063e-16
3.86023e-12
1.37667e-08
0.00059936
0.000512228
6.97687e-09
1.51317e-12
1.28091e-15
4.74204e-22
1.14866e-20
5.33462e-12
5.96395e-12
1.09632e-08
0.00050455
0.000439561
9.78314e-09
1.34126e-11
1.81618e-14
6.3229e-19
5.77533e-18
1.2831e-13
4.80892e-11
1.73833e-08
0.000434498
0.00038742
1.1126e-08
1.44085e-11
5.10308e-14
6.57016e-17
3.87815e-17
3.17027e-14
1.07949e-10
1.5079e-08
0.000384999
0.00034637
1.02841e-08
1.68155e-11
5.41699e-14
1.10253e-16
2.67241e-16
4.22146e-14
9.24206e-11
1.40017e-08
0.000345876
0.000314348
2.57331e-08
4.30352e-11
1.15044e-13
5.1984e-16
5.35094e-16
7.80525e-14
1.49116e-10
1.41796e-08
0.000315055
0.000288128
6.39473e-08
1.21214e-10
5.71072e-13
3.87767e-15
4.26435e-15
2.70773e-13
5.39023e-10
2.19288e-08
0.000290045
0.000266708
1.49551e-07
1.79425e-10
1.29045e-12
3.3322e-14
2.34943e-14
8.37256e-13
5.49918e-09
4.57211e-08
0.000269458
0.000248799
3.67329e-07
1.09176e-09
9.056e-11
2.12223e-10
2.31989e-13
1.07332e-12
1.3781e-08
2.17029e-07
0.000251993
0.000233693
3.72986e-06
3.56091e-09
3.55251e-09
4.23995e-13
4.74386e-11
1.83186e-11
4.91805e-08
2.13748e-07
0.000237321
0.000220814
1.35123e-05
8.35539e-08
6.46678e-10
5.17574e-10
7.28827e-14
4.16678e-10
1.35242e-07
1.24847e-06
0.000224819
0.000209494
2.57627e-05
2.53396e-07
2.32257e-09
1.87708e-12
3.56392e-12
8.40113e-10
2.41036e-07
3.46057e-06
0.000213799
0.000199442
3.90457e-05
1.04599e-06
1.29908e-08
3.42486e-10
3.69454e-12
2.08862e-09
4.50947e-07
1.34756e-05
0.000204674
0.000190341
5.25846e-05
2.49108e-06
8.0102e-08
2.57765e-10
2.8412e-11
3.49655e-09
6.35431e-07
1.39328e-05
0.000196287
0.000182029
6.33442e-05
4.88166e-06
1.06259e-07
1.58975e-08
3.58173e-11
4.31666e-09
6.35776e-07
2.29607e-05
0.000189456
0.000174214
7.35523e-05
7.42531e-06
3.99407e-07
6.84374e-09
5.47931e-10
5.15749e-09
8.20476e-07
3.09833e-05
0.000183005
0.000166809
8.38867e-05
1.04071e-05
4.97934e-07
8.66107e-08
2.12025e-09
4.80579e-09
8.93784e-07
3.42077e-05
0.000177867
0.000159489
9.62386e-05
1.5673e-05
1.61119e-06
4.50781e-08
4.20904e-09
6.31941e-09
9.06621e-07
3.53658e-05
0.000172284
0.00015224
0.000107746
2.06798e-05
1.66066e-06
3.12327e-07
6.31935e-09
4.31629e-09
8.15474e-07
3.31542e-05
0.000168259
0.00014477
0.000120285
2.26495e-05
4.88067e-06
2.60478e-07
9.73908e-08
1.46671e-08
7.28023e-07
3.08463e-05
0.000162393
0.000136696
0.000129885
3.75189e-05
4.04934e-06
1.15713e-06
5.28989e-08
4.39159e-09
5.86916e-07
2.77573e-05
0.000159379
0.000127895
0.000137434
5.2889e-05
1.05866e-05
9.42284e-07
3.82646e-07
1.49105e-07
4.57608e-07
2.21689e-05
0.000151827
0.000117925
0.00014853
7.76604e-05
1.49792e-05
3.70496e-06
3.0404e-07
1.66033e-09
3.17071e-07
1.77029e-05
0.000150175
0.00010699
0.000163437
0.000105151
2.9317e-05
4.77827e-06
1.65728e-06
7.63581e-07
2.66419e-07
1.19651e-05
0.000133011
9.4007e-05
0.000175349
0.00014145
4.59468e-05
1.36175e-05
2.54061e-06
4.54824e-07
3.55643e-07
8.4689e-06
0.000140111
0.00370819
1.86151e-05
1.4654e-05
1.46539e-05
1.46556e-05
1.46555e-05
1.46537e-05
1.46539e-05
1.86029e-05
0.00369324
0.00222676
2.2282e-07
3.59711e-08
3.51913e-08
3.50409e-08
3.52268e-08
3.53416e-08
3.60602e-08
2.23055e-07
0.00218288
0.00144762
2.97143e-08
2.47765e-11
2.64683e-11
2.70076e-11
2.71173e-11
2.73852e-11
2.51664e-11
2.91295e-08
0.00141943
0.00101712
1.97578e-08
1.35546e-15
2.3899e-16
2.53714e-16
2.40283e-16
2.40909e-16
9.41761e-16
1.91002e-08
0.00099389
0.000766977
2.0756e-08
3.29628e-13
2.37871e-22
2.35352e-22
2.55718e-22
3.8407e-22
3.83971e-14
2.10725e-08
0.000747936
0.00061255
2.89691e-08
1.4433e-12
3.3971e-17
3.20845e-23
1.56273e-21
1.29699e-18
7.00555e-12
2.63856e-08
0.000599583
0.000512126
2.15143e-08
4.33419e-12
4.19419e-15
6.69263e-22
6.11993e-22
2.25309e-17
1.10381e-11
2.48978e-08
0.00050375
0.000439289
2.88516e-08
1.44865e-11
5.02988e-14
4.8646e-18
3.13329e-20
3.06404e-16
6.6317e-11
3.87983e-08
0.000435294
0.000386759
3.35203e-08
2.32843e-11
1.06391e-13
6.76033e-17
1.94659e-19
1.45893e-16
1.36616e-10
1.0143e-07
0.00038504
0.00034622
4.57634e-08
5.25883e-11
4.6662e-13
2.05163e-16
2.13774e-16
6.39626e-16
2.36221e-10
6.97292e-08
0.000343924
0.000314068
1.08355e-07
1.00099e-10
8.0697e-13
2.01402e-15
5.20239e-16
1.11793e-15
4.18449e-10
5.34817e-08
0.00031402
0.000287871
1.20007e-07
1.3702e-10
1.63691e-12
2.93627e-15
1.20902e-15
2.452e-15
5.58345e-10
9.02869e-08
0.000289319
0.000266516
1.1251e-06
4.42981e-10
3.41007e-12
3.81536e-14
4.12054e-14
1.06118e-14
3.62441e-09
7.86081e-08
0.000268785
0.00024891
5.42568e-06
8.08663e-09
4.19153e-09
4.94158e-11
1.39773e-15
2.74093e-14
1.3693e-08
7.2051e-07
0.000251702
0.00023368
6.92255e-06
2.04919e-08
2.1067e-10
1.41587e-09
2.43306e-12
6.77304e-14
8.2512e-08
3.26958e-06
0.000237365
0.000220644
1.34557e-05
1.34864e-07
4.95858e-10
2.78731e-13
1.96281e-12
1.46269e-13
1.03767e-07
7.6069e-06
0.000225205
0.000209307
2.17476e-05
6.64297e-07
7.82498e-09
4.11503e-11
7.15012e-12
6.11724e-13
2.52278e-07
1.29229e-05
0.000214477
0.000199319
3.49097e-05
1.60583e-06
3.19527e-08
1.10227e-10
4.06754e-11
6.60879e-12
3.77354e-07
1.76899e-05
0.000205256
0.000190316
4.76834e-05
3.12464e-06
9.68364e-08
4.21721e-09
7.87097e-11
2.65257e-12
4.74807e-07
2.1911e-05
0.0001967
0.000182021
5.91716e-05
4.41031e-06
2.02319e-07
2.20337e-09
2.28643e-10
1.6404e-11
6.42662e-07
2.70372e-05
0.000189686
0.00017425
7.09045e-05
6.5973e-06
3.31627e-07
3.5776e-08
5.4901e-10
8.24074e-11
6.24595e-07
2.39497e-05
0.000182816
0.000166798
7.89879e-05
8.55111e-06
5.76177e-07
9.02418e-09
3.13026e-09
2.21134e-10
6.93042e-07
2.47141e-05
0.000177412
0.000159532
9.10528e-05
1.20202e-05
8.87406e-07
2.25275e-07
6.14214e-09
7.34345e-10
7.19515e-07
2.96695e-05
0.000171736
0.000152163
9.84104e-05
1.66191e-05
1.69593e-06
6.67284e-08
9.05332e-09
9.93229e-10
6.80558e-07
3.0331e-05
0.000167716
0.00014452
0.000118355
2.17197e-05
2.22605e-06
4.56811e-07
1.05529e-08
4.22219e-09
6.07978e-07
2.89186e-05
0.000162289
0.000136422
0.000128357
3.3178e-05
5.25532e-06
3.69208e-07
1.63925e-07
1.56408e-09
5.10666e-07
2.61881e-05
0.000158666
0.000127638
0.000139708
5.69533e-05
7.21673e-06
1.79487e-06
8.12865e-08
3.21696e-08
3.82982e-07
2.12903e-05
0.000152249
0.000117815
0.000151018
8.22938e-05
1.84795e-05
2.18739e-06
7.61516e-07
2.80419e-08
2.93478e-07
1.73381e-05
0.000150194
0.000106867
0.000166628
0.000110282
3.06975e-05
7.73679e-06
7.52285e-07
4.33604e-07
2.47737e-07
1.21315e-05
0.000132744
9.42254e-05
0.000178833
0.000147621
5.25547e-05
1.22843e-05
3.80401e-06
5.25034e-07
3.79801e-07
8.44779e-06
0.000142253
0.00370846
1.86102e-05
1.46526e-05
1.46524e-05
1.46536e-05
1.46541e-05
1.46524e-05
1.46524e-05
1.8598e-05
0.00369362
0.00222811
2.22829e-07
3.59808e-08
3.52667e-08
3.52965e-08
3.52507e-08
3.53767e-08
3.61511e-08
2.23182e-07
0.00218429
0.00144972
2.86341e-08
2.33218e-11
2.68045e-11
2.76764e-11
2.56157e-11
2.65026e-11
2.42427e-11
2.74232e-08
0.00142146
0.00101956
1.91876e-08
9.94024e-16
2.3326e-16
2.48011e-16
2.43047e-16
2.881e-16
1.18467e-15
1.758e-08
0.000995728
0.000770087
1.97708e-08
3.63846e-14
3.15308e-22
1.41139e-22
1.3161e-22
2.60562e-23
7.9651e-14
2.36386e-08
0.000750743
0.000615153
2.86374e-08
9.76545e-13
7.47181e-17
1.47141e-16
2.43696e-18
3.28665e-18
5.8815e-12
1.58558e-08
0.000601318
0.000514785
2.08804e-08
1.08748e-12
1.41626e-16
3.26822e-15
4.70688e-16
4.71758e-15
3.85025e-12
9.76091e-09
0.00050704
0.000441218
3.20769e-08
7.18507e-12
8.47462e-15
1.47751e-14
1.8068e-14
9.28661e-14
9.67819e-11
1.52888e-08
0.000437177
0.000388775
3.81504e-08
1.48733e-11
3.08051e-14
1.8661e-13
3.63523e-13
3.1048e-13
1.19537e-10
1.27512e-08
0.000387116
0.000347237
5.13538e-08
3.54544e-11
6.54821e-14
2.13559e-13
2.83957e-13
1.25821e-12
2.35324e-10
1.61523e-08
0.000347373
0.000315283
1.37453e-07
5.48508e-11
2.5939e-13
8.24253e-13
2.03259e-12
1.60625e-12
3.29625e-10
2.62589e-08
0.000316304
0.000289202
1.145e-07
2.21834e-10
6.15437e-13
1.69099e-12
1.37845e-11
4.34278e-11
9.16976e-10
6.58867e-08
0.000290936
0.000267887
1.96369e-06
4.86522e-10
2.30603e-12
4.72328e-11
2.23275e-10
2.57225e-10
8.3303e-09
6.35477e-08
0.000269942
0.000249935
2.71999e-06
1.37001e-09
5.97962e-13
5.94672e-10
2.07367e-09
9.61525e-10
3.36822e-08
6.38377e-07
0.000252737
0.00023453
7.28366e-06
5.62693e-09
1.29621e-10
1.33369e-09
3.42165e-09
4.23215e-09
1.29421e-07
3.70711e-06
0.000238184
0.000221519
1.22685e-05
4.02541e-08
3.45843e-11
3.31421e-09
7.55668e-09
1.06837e-08
2.66758e-07
1.0497e-05
0.000225914
0.000210103
2.20284e-05
2.33586e-07
1.72201e-09
4.35473e-09
1.08309e-08
1.56195e-08
4.25443e-07
2.00076e-05
0.000215205
0.000200006
3.76777e-05
1.18876e-06
1.71067e-08
9.04197e-09
1.53169e-08
2.38109e-08
5.58916e-07
2.65839e-05
0.000206105
0.00019079
4.90136e-05
2.50123e-06
6.53433e-08
1.30432e-08
1.57433e-08
3.06238e-08
7.17699e-07
3.32014e-05
0.000197816
0.000182321
6.46521e-05
4.82967e-06
2.17455e-07
3.44192e-08
2.924e-08
3.34077e-08
8.53255e-07
3.65583e-05
0.000190983
0.000174494
7.4845e-05
7.38193e-06
5.68769e-07
3.32524e-08
3.2043e-08
4.64584e-08
9.70962e-07
3.77169e-05
0.000184373
0.000166907
8.89291e-05
1.01448e-05
9.40525e-07
2.25846e-07
3.36615e-08
5.49e-08
9.47728e-07
3.64256e-05
0.000179043
0.000159591
0.00010317
1.38797e-05
1.88156e-06
1.16388e-07
5.74086e-08
5.50155e-08
9.29951e-07
3.54452e-05
0.000173316
0.000152414
0.000111316
1.91559e-05
2.12772e-06
5.55108e-07
4.4484e-08
9.99948e-08
8.42839e-07
3.24315e-05
0.000169156
0.000144809
0.000124984
2.36518e-05
3.90432e-06
3.53551e-07
2.25513e-07
1.16025e-07
7.50603e-07
2.97225e-05
0.00016319
0.000136773
0.00013236
3.70876e-05
4.7074e-06
1.44573e-06
1.15859e-07
9.16421e-08
6.24438e-07
2.61733e-05
0.000160157
0.000128102
0.000142316
5.83419e-05
1.04144e-05
1.04267e-06
4.61261e-07
1.63333e-07
5.01091e-07
2.15322e-05
0.000152967
0.000118598
0.000153374
8.38572e-05
1.86975e-05
4.02574e-06
3.96498e-07
1.75446e-07
4.43206e-07
1.61488e-05
0.000149017
0.000108252
0.000167569
0.000111801
3.18147e-05
5.84494e-06
1.7681e-06
5.091e-07
4.57257e-07
1.1347e-05
0.000137164
9.68756e-05
0.000181471
0.000148489
5.46613e-05
1.57102e-05
3.11414e-06
9.61204e-07
6.27419e-07
8.5563e-06
0.000130477
0.00370982
1.86236e-05
1.46529e-05
1.46524e-05
1.46541e-05
1.46542e-05
1.46531e-05
1.46532e-05
1.86115e-05
0.00369526
0.00223071
2.21192e-07
3.67555e-08
3.61147e-08
3.59915e-08
3.59656e-08
3.58803e-08
3.66835e-08
2.21519e-07
0.00218696
0.00145469
3.22025e-08
2.1598e-11
2.46894e-11
2.46105e-11
2.45439e-11
2.45559e-11
2.13861e-11
3.05805e-08
0.00142581
0.00103039
1.66541e-08
2.14929e-15
1.26446e-15
1.42981e-15
1.2049e-15
1.38794e-15
1.55731e-15
1.93745e-08
0.00100367
0.000780465
1.9416e-08
1.37715e-12
3.48344e-13
1.24446e-13
4.80403e-14
1.11999e-13
1.52424e-12
2.11303e-08
0.000761289
0.000625188
1.59633e-08
8.85135e-12
5.43342e-12
4.7404e-12
5.01833e-12
3.81405e-12
6.31804e-12
1.53269e-08
0.000611742
0.000519036
1.66067e-08
9.20585e-12
8.27287e-12
1.39679e-11
1.1122e-11
6.39444e-11
1.79687e-12
1.1363e-08
0.00051376
0.000446329
1.98975e-08
7.24576e-11
1.16989e-11
1.11684e-10
8.91583e-11
2.80596e-11
2.86744e-10
2.18427e-08
0.000441615
0.00039159
2.76013e-08
1.67465e-10
1.86462e-11
1.31768e-10
2.24116e-10
1.33041e-10
2.40438e-10
2.38947e-08
0.000390166
0.000349609
6.7669e-08
2.24008e-10
8.1997e-11
9.86337e-11
1.4137e-10
3.09361e-10
2.32241e-10
2.91117e-08
0.000349328
0.000316808
1.17741e-07
6.00404e-10
1.89312e-10
4.72208e-10
5.88288e-10
2.67054e-10
3.51272e-10
7.17371e-08
0.00031727
0.000290636
6.49294e-07
1.08673e-09
9.10816e-10
1.27484e-09
3.95964e-09
2.5795e-09
8.21793e-10
1.05478e-07
0.000291522
0.000269
9.38462e-07
6.74295e-09
6.30776e-09
1.22098e-08
2.15141e-08
3.90907e-09
2.37652e-09
3.54253e-07
0.000270308
0.000251009
6.10716e-06
3.26548e-08
2.0651e-09
1.36588e-07
1.57187e-07
3.11439e-08
3.42937e-09
2.16552e-06
0.00025286
0.000235761
1.73701e-05
2.5512e-07
6.88652e-08
2.15012e-07
2.95156e-07
3.01943e-07
3.75151e-08
6.50203e-06
0.000238056
0.000222611
3.03178e-05
8.96411e-07
2.17191e-07
6.01374e-07
6.36482e-07
6.60899e-07
1.02698e-07
1.33161e-05
0.000225543
0.000211123
4.1715e-05
2.06092e-06
4.67232e-07
7.28528e-07
9.17983e-07
1.28233e-06
3.51295e-07
1.99932e-05
0.00021462
0.000200942
5.32308e-05
3.53163e-06
1.20546e-06
1.18982e-06
1.25691e-06
1.73285e-06
9.31903e-07
2.8699e-05
0.00020538
0.000191776
5.9981e-05
5.14278e-06
2.1988e-06
1.47077e-06
1.60834e-06
2.01324e-06
1.6637e-06
2.7924e-05
0.000196906
0.000183301
6.90036e-05
6.79241e-06
2.92044e-06
2.12851e-06
1.98453e-06
2.59047e-06
2.6036e-06
3.07489e-05
0.000189884
0.00017538
7.78331e-05
9.10734e-06
4.00058e-06
2.61113e-06
2.39424e-06
2.87168e-06
3.39538e-06
3.70517e-05
0.000183112
0.000167706
8.88526e-05
1.14655e-05
4.74277e-06
3.23895e-06
2.56766e-06
3.58152e-06
3.84686e-06
4.17025e-05
0.00017793
0.000160203
0.000101223
1.60312e-05
6.08328e-06
3.98145e-06
3.2837e-06
3.54357e-06
4.26299e-06
4.23234e-05
0.000172262
0.000152596
0.000115104
2.17607e-05
7.41373e-06
4.68578e-06
3.3155e-06
4.62987e-06
4.52637e-06
4.19581e-05
0.000168253
0.000144761
0.000133618
3.01429e-05
9.10685e-06
6.22463e-06
4.69694e-06
5.10762e-06
5.11831e-06
3.88654e-05
0.000162883
0.000136487
0.000142871
5.37514e-05
1.20407e-05
6.90134e-06
4.66248e-06
4.84047e-06
5.37695e-06
3.6541e-05
0.000159693
0.000127361
0.000154012
7.75172e-05
1.9723e-05
7.37151e-06
5.42776e-06
5.25459e-06
6.21519e-06
3.07471e-05
0.000153202
0.000117201
0.000171233
0.000109121
3.3352e-05
1.20759e-05
7.4495e-06
6.50302e-06
6.95677e-06
2.94561e-05
0.000149253
0.000106731
0.00018578
0.000142946
5.20439e-05
1.8564e-05
1.03735e-05
8.75153e-06
9.03707e-06
2.29885e-05
0.00013876
9.79057e-05
0.000206181
0.000180002
9.31182e-05
3.70332e-05
1.80132e-05
1.19831e-05
1.15677e-05
2.34289e-05
0.000138608
0.00371762
2.36429e-05
1.86119e-05
1.85989e-05
1.8604e-05
1.86039e-05
1.8599e-05
1.86125e-05
2.36357e-05
0.00370387
0.00221676
4.37474e-07
2.21377e-07
2.23354e-07
2.23461e-07
2.2367e-07
2.23319e-07
2.21668e-07
4.34471e-07
0.00217348
0.00144488
2.10616e-07
3.07509e-08
2.83887e-08
2.78478e-08
2.74283e-08
2.84408e-08
3.09749e-08
2.08922e-07
0.00140829
0.00103818
3.07922e-07
1.89246e-08
1.74004e-08
1.76345e-08
2.15183e-08
1.88307e-08
1.96108e-08
3.03986e-07
0.00100166
0.000797336
7.51596e-07
2.24486e-08
2.76165e-08
2.6404e-08
1.147e-08
2.048e-08
2.15162e-08
7.75721e-07
0.000768914
0.000643961
2.27529e-06
1.69292e-08
1.55324e-08
1.612e-08
8.61839e-09
3.36423e-08
1.56383e-08
2.37695e-06
0.000624811
0.000532576