/*--------------------------------*- C++ -*----------------------------------*\
| =========                 |                                                 |
| \\      /  F ield         | OpenFOAM: The Open Source CFD Toolbox           |
|  \\    /   O peration     | Version:  4.1                                   |
|   \\  /    A nd           | Web:      www.OpenFOAM.org                      |
|    \\/     M anipulation  |                                                 |
\*---------------------------------------------------------------------------*/
FoamFile
{
    version     2.0;
    format      ascii;
    class       volScalarField;
    location    "1800";
    object      p;
}
// * * * * * * * * * * * * * * * * * * * * * * * * * * * * * * * * * * * * * //

dimensions      [0 2 -2 0 0 0 0];

internalField   nonuniform List<scalar> 
12000
(
0.0763308
0.0766096
0.0762745
0.0761542
0.0761166
0.0761151
0.0761499
0.0762677
0.0766004
0.0763181
0.0757663
0.0757507
0.0756887
0.0756914
0.075678
0.0756764
0.0756868
0.0756814
0.0757409
0.0757536
0.0756477
0.0754114
0.0754733
0.0755216
0.0755236
0.0755218
0.0755163
0.0754649
0.0754003
0.0756336
0.0756176
0.0753536
0.0754377
0.0754657
0.0754656
0.0754635
0.0754593
0.0754277
0.0753403
0.0756008
0.0755193
0.0752992
0.0753857
0.0753888
0.0753862
0.0753835
0.0753808
0.0753731
0.0752829
0.0754987
0.0753955
0.0752197
0.0753039
0.0752939
0.0752934
0.07529
0.0752836
0.0752878
0.0751991
0.0753696
0.0752936
0.075151
0.0752278
0.0752101
0.0752124
0.075208
0.0751967
0.0752071
0.0751246
0.0752605
0.0752187
0.075102
0.0751687
0.0751445
0.0751479
0.0751422
0.0751271
0.0751418
0.0750684
0.0751762
0.0751603
0.0750651
0.0751204
0.0750911
0.0750942
0.075087
0.0750685
0.0750852
0.0750204
0.0751047
0.0751113
0.0750325
0.075077
0.0750446
0.0750463
0.0750368
0.0750152
0.0750311
0.0749726
0.0750382
0.0750697
0.0750017
0.0750383
0.0750035
0.0750025
0.0749899
0.074965
0.0749778
0.0749227
0.0749746
0.0750372
0.0749761
0.075005
0.0749677
0.0749623
0.0749459
0.0749172
0.0749256
0.0748724
0.0749142
0.0750142
0.074957
0.0749774
0.0749367
0.0749258
0.0749047
0.0748712
0.0748742
0.0748223
0.0748557
0.0750006
0.0749444
0.0749559
0.0749104
0.0748925
0.0748651
0.0748257
0.0748222
0.0747702
0.0747961
0.0749972
0.0749397
0.0749409
0.0748886
0.0748615
0.0748258
0.0747793
0.0747677
0.0747136
0.0747327
0.0750055
0.0749445
0.0749334
0.0748717
0.0748327
0.0747863
0.0747303
0.0747087
0.0746505
0.0746628
0.0750275
0.0749607
0.0749345
0.0748603
0.074806
0.0747457
0.0746771
0.0746427
0.074578
0.0745832
0.0750651
0.0749905
0.0749455
0.0748547
0.0747813
0.074703
0.0746176
0.074567
0.0744927
0.0744899
0.0751208
0.0750368
0.0749679
0.0748556
0.0747581
0.0746566
0.0745493
0.0744778
0.0743899
0.0743776
0.0751964
0.0751025
0.0750036
0.0748638
0.074736
0.0746049
0.0744689
0.0743706
0.0742632
0.0742391
0.0752929
0.0751902
0.0750545
0.0748802
0.0747148
0.074546
0.0743725
0.0742387
0.0741043
0.0740648
0.0754083
0.0753012
0.0751225
0.074906
0.0746945
0.0744778
0.0742549
0.0740735
0.0739012
0.0738407
0.0755363
0.0754326
0.0752088
0.0749429
0.0746757
0.0743983
0.0741102
0.0738635
0.0736365
0.073546
0.075664
0.0755745
0.0753139
0.0749938
0.0746601
0.0743059
0.0739307
0.0735923
0.0732841
0.0731477
0.0757727
0.0757078
0.0754358
0.0750642
0.0746521
0.0742
0.0737074
0.0732369
0.0728023
0.0725898
0.0758451
0.075811
0.0755721
0.0751633
0.0746593
0.0740815
0.0734286
0.0727633
0.0721215
0.071772
0.0758812
0.0758757
0.0757183
0.0752981
0.0746911
0.0739542
0.0730821
0.0721235
0.0711241
0.0704808
0.075911
0.0759487
0.0758775
0.07546
0.0747477
0.0738164
0.0726437
0.0712342
0.0696044
0.0682492
0.0759234
0.0759938
0.0759566
0.0755643
0.074788
0.0736599
0.0721078
0.069998
0.0672677
0.0636382
0.0758839
0.0759313
0.0758347
0.0754328
0.07465
0.0733477
0.0713371
0.0680674
0.0637107
0.0529292
0.076611
0.0766492
0.0763178
0.0761993
0.0761593
0.0761578
0.076195
0.0763111
0.0766405
0.0765972
0.075752
0.0757006
0.075666
0.0756733
0.0756582
0.0756567
0.0756688
0.0756588
0.0756909
0.0757389
0.075413
0.0751916
0.0752775
0.0753333
0.0753343
0.0753325
0.0753281
0.0752692
0.0751803
0.0753983
0.0753557
0.0750955
0.0751969
0.0752251
0.0752233
0.0752211
0.0752187
0.0751868
0.0750817
0.0753382
0.0753018
0.0750796
0.0751835
0.0751794
0.0751752
0.0751725
0.0751713
0.0751709
0.0750624
0.0752804
0.0752231
0.0750418
0.0751439
0.0751236
0.0751241
0.0751207
0.0751133
0.0751278
0.0750201
0.0751961
0.0751553
0.0750039
0.0750966
0.0750676
0.0750735
0.0750692
0.0750542
0.0750757
0.0749759
0.0751211
0.0751074
0.0749797
0.0750597
0.0750243
0.0750326
0.0750269
0.0750068
0.0750323
0.0749432
0.075064
0.0750722
0.074962
0.0750297
0.0749907
0.0749989
0.0749916
0.0749679
0.0749945
0.0749149
0.0750149
0.0750415
0.0749458
0.0750022
0.0749613
0.0749678
0.0749585
0.0749315
0.0749565
0.0748848
0.0749657
0.075013
0.0749309
0.0749771
0.0749341
0.0749376
0.0749255
0.0748954
0.0749175
0.0748518
0.0749143
0.0749906
0.074918
0.0749545
0.0749094
0.0749084
0.0748928
0.0748592
0.0748771
0.0748154
0.0748627
0.0749755
0.074909
0.0749357
0.0748876
0.0748805
0.0748601
0.0748225
0.0748346
0.0747754
0.074811
0.074968
0.0749051
0.0749214
0.0748689
0.074854
0.0748273
0.0747844
0.0747893
0.0747311
0.0747568
0.0749693
0.0749072
0.0749121
0.0748534
0.0748286
0.0747937
0.0747439
0.0747399
0.0746804
0.0746978
0.0749811
0.0749169
0.0749086
0.0748413
0.0748042
0.0747586
0.0746994
0.0746844
0.0746213
0.0746313
0.0750052
0.0749363
0.0749121
0.0748331
0.0747804
0.0747211
0.0746495
0.0746208
0.0745514
0.074554
0.0750438
0.0749675
0.074924
0.0748292
0.0747571
0.0746799
0.0745919
0.0745462
0.0744672
0.0744616
0.0750989
0.0750131
0.0749456
0.0748301
0.0747337
0.0746336
0.0745241
0.0744567
0.074364
0.0743487
0.075172
0.0750756
0.0749785
0.0748365
0.0747097
0.0745803
0.0744426
0.0743471
0.0742351
0.074208
0.0752637
0.0751575
0.0750243
0.0748489
0.0746844
0.0745175
0.0743428
0.0742107
0.0740715
0.0740291
0.0753731
0.0752597
0.0750846
0.074868
0.0746573
0.0744426
0.074219
0.0740382
0.0738605
0.0737972
0.0754959
0.0753809
0.0751601
0.0748948
0.0746281
0.0743525
0.074064
0.0738167
0.0735831
0.0734895
0.0756223
0.0755154
0.0752519
0.0749315
0.0745978
0.0742445
0.0738687
0.0735278
0.0732106
0.0730706
0.0757373
0.0756515
0.0753598
0.074982
0.0745691
0.074117
0.0736223
0.073146
0.0726971
0.0724793
0.0758246
0.0757716
0.0754829
0.075053
0.0745477
0.0739696
0.0733115
0.0726337
0.0719665
0.071606
0.0758762
0.0758582
0.0756154
0.0751503
0.0745417
0.0738057
0.0729227
0.071939
0.0708883
0.0702169
0.0759005
0.0759167
0.0757456
0.0752658
0.0745514
0.0736245
0.0724334
0.0709782
0.0692405
0.0678058
0.0758876
0.0759232
0.0758019
0.0753381
0.0745532
0.0734249
0.0718389
0.069648
0.0667035
0.0628229
0.0758517
0.0758256
0.0756362
0.0751859
0.074398
0.0731024
0.0710677
0.0676523
0.0630072
0.0514281
0.0762771
0.076319
0.0760109
0.0758882
0.0758466
0.0758451
0.0758838
0.0760043
0.0763104
0.0762625
0.0756913
0.0756673
0.0756386
0.0756408
0.0756257
0.0756241
0.0756362
0.0756314
0.0756575
0.0756778
0.0754762
0.0752789
0.0753648
0.0754188
0.0754202
0.0754184
0.0754135
0.0753565
0.0752676
0.0754614
0.0754415
0.0751987
0.0752989
0.0753257
0.0753235
0.0753213
0.0753192
0.0752888
0.075185
0.0754237
0.0753904
0.0751858
0.0752909
0.0752846
0.0752797
0.075277
0.0752764
0.0752783
0.0751687
0.0753686
0.0753097
0.0751467
0.0752537
0.0752317
0.0752328
0.0752293
0.0752213
0.0752376
0.0751251
0.0752826
0.0752352
0.0751002
0.0751996
0.0751694
0.0751774
0.0751731
0.075156
0.0751788
0.0750723
0.0752008
0.0751784
0.0750643
0.0751514
0.0751146
0.0751257
0.0751202
0.0750972
0.0751244
0.0750279
0.0751343
0.075133
0.0750355
0.0751113
0.07507
0.0750812
0.075074
0.0750473
0.0750763
0.0749887
0.075076
0.075093
0.0750096
0.0750751
0.075031
0.0750406
0.0750314
0.0750014
0.0750294
0.0749493
0.0750192
0.0750582
0.0749868
0.0750413
0.0749951
0.0750018
0.07499
0.0749567
0.0749819
0.0749086
0.0749627
0.0750306
0.0749671
0.0750105
0.0749624
0.0749648
0.0749495
0.0749127
0.0749336
0.0748658
0.0749069
0.0750105
0.074952
0.0749843
0.0749335
0.0749298
0.0749097
0.0748691
0.074884
0.07482
0.0748508
0.0749989
0.0749427
0.0749633
0.0749084
0.0748968
0.0748705
0.0748248
0.0748321
0.0747702
0.0747923
0.0749966
0.0749398
0.0749476
0.0748871
0.0748656
0.0748312
0.0747786
0.0747766
0.0747148
0.0747291
0.0750045
0.0749444
0.0749382
0.0748697
0.0748357
0.0747907
0.0747291
0.0747156
0.0746515
0.0746585
0.0750245
0.0749586
0.074936
0.0748561
0.0748066
0.074748
0.0746743
0.0746468
0.0745776
0.0745771
0.0750586
0.0749841
0.074942
0.0748468
0.0747778
0.0747017
0.0746121
0.0745673
0.0744894
0.0744807
0.0751084
0.0750231
0.0749573
0.0748419
0.0747488
0.07465
0.0745395
0.074473
0.074382
0.0743638
0.0751751
0.0750778
0.074983
0.0748417
0.0747187
0.0745909
0.0744527
0.0743585
0.0742485
0.0742186
0.075259
0.0751499
0.0750203
0.0748464
0.0746864
0.0745216
0.0743469
0.0742166
0.0740795
0.0740343
0.0753587
0.0752404
0.07507
0.0748561
0.0746506
0.0744386
0.0742158
0.0740374
0.0738615
0.0737954
0.0754698
0.0753477
0.0751327
0.0748709
0.0746103
0.0743384
0.0740513
0.073807
0.0735748
0.0734781
0.0755847
0.0754674
0.0752081
0.0748916
0.0745652
0.074217
0.0738433
0.0735062
0.073189
0.0730449
0.0756927
0.0755905
0.0752955
0.0749204
0.0745166
0.0740718
0.07358
0.0731077
0.0726563
0.072432
0.0757826
0.0757049
0.075393
0.0749614
0.0744687
0.0739019
0.0732481
0.072573
0.0718972
0.0715252
0.0758461
0.0757981
0.0754979
0.0750208
0.0744314
0.0737143
0.0728378
0.0718529
0.070779
0.0700835
0.0758829
0.0758632
0.0756025
0.0751028
0.0744201
0.0735255
0.072345
0.0708807
0.0690841
0.0675923
0.0758978
0.0758952
0.0756873
0.0752135
0.0744776
0.0734
0.0718323
0.069623
0.0665485
0.0625123
0.0759049
0.0758851
0.0757175
0.075346
0.0746532
0.0734241
0.0714115
0.0679657
0.0631001
0.0510887
0.0761582
0.0762019
0.0758895
0.0757658
0.0757239
0.0757224
0.0757615
0.0758828
0.0761932
0.0761433
0.0756953
0.075676
0.0756422
0.0756446
0.0756295
0.0756279
0.07564
0.0756349
0.0756662
0.0756818
0.0755262
0.0753363
0.0754203
0.0754765
0.075478
0.0754762
0.0754712
0.075412
0.075325
0.0755112
0.0754713
0.0752287
0.0753274
0.0753561
0.0753536
0.0753514
0.0753496
0.0753174
0.075215
0.0754535
0.0753959
0.0751839
0.0752867
0.0752808
0.0752752
0.0752725
0.0752727
0.0752742
0.0751668
0.075374
0.0753028
0.0751294
0.0752345
0.075212
0.0752124
0.075209
0.0752016
0.0752185
0.0751077
0.0752754
0.0752212
0.0750751
0.0751732
0.0751417
0.0751495
0.0751452
0.0751284
0.0751525
0.0750473
0.0751864
0.0751592
0.0750338
0.0751194
0.0750804
0.0750915
0.075086
0.0750631
0.0750927
0.0749979
0.0751141
0.0751106
0.075003
0.075076
0.0750316
0.0750429
0.0750359
0.0750091
0.0750415
0.0749566
0.075052
0.0750696
0.0749773
0.0750391
0.0749917
0.0750015
0.0749925
0.0749623
0.0749939
0.0749171
0.0749942
0.0750355
0.0749551
0.075006
0.074957
0.074964
0.0749522
0.0749188
0.0749471
0.0748771
0.0749384
0.0750091
0.0749368
0.0749769
0.0749264
0.0749289
0.0749137
0.0748768
0.0749002
0.0748356
0.0748835
0.0749901
0.0749235
0.0749526
0.0749001
0.0748963
0.0748764
0.0748355
0.0748524
0.0747915
0.0748286
0.0749792
0.0749154
0.0749334
0.0748778
0.0748659
0.0748398
0.0747938
0.0748026
0.0747433
0.0747716
0.0749776
0.0749139
0.0749197
0.0748592
0.0748372
0.0748029
0.0747503
0.0747493
0.0746894
0.0747095
0.0749863
0.0749203
0.074912
0.074844
0.0748094
0.0747647
0.0747033
0.0746905
0.0746277
0.0746394
0.0750074
0.0749361
0.0749111
0.0748322
0.0747819
0.0747238
0.0746507
0.0746238
0.0745552
0.0745584
0.0750423
0.0749628
0.0749177
0.0748238
0.0747542
0.0746788
0.0745901
0.0745458
0.074468
0.0744621
0.0750918
0.075002
0.0749329
0.0748192
0.0747257
0.0746279
0.0745184
0.0744525
0.0743611
0.0743447
0.0751565
0.0750554
0.0749574
0.0748184
0.0746953
0.0745687
0.0744318
0.0743382
0.0742274
0.0741984
0.0752368
0.0751246
0.0749922
0.0748212
0.0746615
0.0744982
0.074325
0.0741954
0.0740572
0.0740121
0.0753315
0.0752105
0.0750379
0.0748272
0.0746229
0.0744126
0.0741914
0.0740138
0.0738365
0.0737696
0.0754373
0.0753122
0.0750948
0.0748365
0.0745779
0.0743081
0.0740228
0.0737795
0.0735453
0.0734468
0.0755479
0.0754261
0.0751632
0.0748496
0.0745261
0.0741806
0.073809
0.0734728
0.0731527
0.0730056
0.0756552
0.0755456
0.0752429
0.074869
0.0744692
0.0740283
0.073539
0.0730671
0.0726111
0.0723818
0.0757509
0.0756614
0.0753342
0.0749007
0.0744141
0.0738534
0.0732027
0.0725269
0.0718427
0.071462
0.0758281
0.0757647
0.0754385
0.0749572
0.0743783
0.0736714
0.0727992
0.0718117
0.0707221
0.0700105
0.0758862
0.0758498
0.0755571
0.0750584
0.0743954
0.0735174
0.0723434
0.0708741
0.06905
0.0675274
0.0759307
0.0759156
0.0756945
0.0752449
0.0745441
0.0734908
0.0719331
0.06972
0.0666096
0.0625345
0.0759644
0.0759561
0.0758501
0.0755566
0.0749145
0.0737074
0.0717035
0.0682616
0.0633721
0.0513942
0.076122
0.0761634
0.0758494
0.0757254
0.0756834
0.0756819
0.075721
0.0758427
0.0761546
0.076107
0.0756835
0.0756624
0.0756286
0.075631
0.0756158
0.0756142
0.0756264
0.0756213
0.0756526
0.0756698
0.0755299
0.075339
0.0754234
0.0754797
0.0754812
0.0754794
0.0754745
0.0754152
0.0753277
0.0755149
0.0754735
0.0752291
0.0753274
0.0753557
0.075353
0.0753508
0.0753493
0.0753174
0.0752153
0.0754555
0.0753961
0.0751823
0.0752846
0.0752779
0.0752719
0.0752691
0.0752698
0.075272
0.0751653
0.0753741
0.0753059
0.0751333
0.075239
0.0752159
0.075216
0.0752125
0.0752055
0.075223
0.0751116
0.0752784
0.0752281
0.0750855
0.0751857
0.0751541
0.0751619
0.0751575
0.0751407
0.075165
0.0750577
0.0751932
0.0751684
0.075048
0.0751365
0.0750975
0.075109
0.0751035
0.0750802
0.0751098
0.0750122
0.0751233
0.0751211
0.075019
0.0750951
0.0750508
0.0750628
0.0750558
0.0750283
0.0750606
0.0749728
0.0750627
0.0750807
0.0749942
0.0750592
0.0750118
0.0750226
0.0750136
0.0749825
0.0750141
0.0749344
0.0750057
0.075047
0.0749721
0.0750263
0.0749774
0.0749855
0.0749738
0.0749392
0.0749674
0.0748943
0.0749505
0.075021
0.0749533
0.0749964
0.0749461
0.07495
0.0749348
0.0748966
0.0749198
0.0748519
0.0748964
0.0750036
0.0749391
0.0749703
0.0749184
0.0749163
0.0748964
0.0748541
0.0748709
0.0748066
0.0748418
0.0749926
0.0749299
0.0749495
0.0748946
0.0748844
0.0748583
0.074811
0.0748199
0.0747574
0.0747841
0.0749866
0.0749262
0.0749354
0.074875
0.0748539
0.0748197
0.074766
0.0747653
0.0747024
0.0747208
0.0749915
0.0749302
0.0749269
0.0748584
0.0748242
0.0747796
0.0747173
0.0747051
0.0746395
0.0746497
0.0750115
0.0749443
0.074924
0.0748442
0.0747946
0.0747368
0.0746629
0.0746367
0.0745657
0.0745674
0.0750463
0.0749694
0.0749281
0.0748331
0.0747647
0.0746899
0.0746004
0.074557
0.0744771
0.0744699
0.075095
0.0750067
0.0749403
0.0748257
0.0747338
0.0746368
0.0745267
0.0744618
0.0743687
0.0743512
0.0751579
0.0750574
0.0749617
0.074822
0.0747008
0.0745751
0.0744378
0.0743453
0.0742332
0.0742033
0.0752355
0.0751233
0.0749929
0.0748216
0.0746641
0.0745018
0.0743283
0.0742
0.0740609
0.0740149
0.075327
0.0752055
0.0750345
0.0748241
0.0746219
0.0744129
0.0741916
0.0740155
0.0738376
0.0737699
0.0754297
0.0753035
0.075087
0.0748292
0.0745729
0.0743044
0.0740192
0.0737775
0.073543
0.0734439
0.0755383
0.0754146
0.0751509
0.0748377
0.0745165
0.0741726
0.0738012
0.0734665
0.0731464
0.0729987
0.075646
0.0755333
0.075227
0.0748526
0.0744552
0.0740163
0.0735275
0.0730568
0.0726005
0.0723705
0.0757452
0.0756517
0.0753168
0.0748813
0.0743975
0.0738396
0.0731896
0.0725145
0.0718292
0.0714472
0.0758293
0.0757617
0.0754239
0.0749395
0.0743649
0.0736624
0.0727917
0.0718041
0.0707118
0.0699973
0.0758962
0.0758564
0.0755525
0.075053
0.0743979
0.0735274
0.0723564
0.0708866
0.0690574
0.0675296
0.0759483
0.0759313
0.0757108
0.0752719
0.0745865
0.073546
0.0719959
0.0697848
0.0666699
0.0625801
0.0759875
0.0759818
0.0759061
0.0756481
0.0750333
0.0738463
0.071858
0.0684254
0.063537
0.0515124
0.0761221
0.0761634
0.0758494
0.0757254
0.0756834
0.0756819
0.0757211
0.0758427
0.0761546
0.0761071
0.0756835
0.0756624
0.0756286
0.075631
0.0756158
0.0756142
0.0756264
0.0756213
0.0756526
0.0756699
0.07553
0.075339
0.0754234
0.0754797
0.0754812
0.0754794
0.0754745
0.0754152
0.0753277
0.0755149
0.0754736
0.075229
0.0753274
0.0753557
0.075353
0.0753508
0.0753493
0.0753174
0.0752153
0.0754555
0.0753961
0.0751823
0.0752846
0.0752779
0.0752718
0.0752691
0.0752698
0.075272
0.0751653
0.0753739
0.0753059
0.0751332
0.075239
0.0752159
0.0752159
0.0752125
0.0752055
0.075223
0.0751116
0.0752782
0.0752282
0.0750854
0.0751857
0.075154
0.0751618
0.0751575
0.0751407
0.075165
0.0750577
0.0751931
0.0751683
0.075048
0.0751365
0.0750974
0.075109
0.0751035
0.0750801
0.0751098
0.0750122
0.0751233
0.0751208
0.075019
0.0750951
0.0750507
0.0750628
0.0750557
0.0750282
0.0750606
0.0749729
0.0750626
0.0750805
0.0749941
0.0750591
0.0750118
0.0750226
0.0750135
0.0749824
0.075014
0.0749344
0.0750056
0.0750469
0.0749719
0.0750261
0.0749773
0.0749854
0.0749737
0.0749391
0.0749672
0.0748942
0.0749506
0.0750179
0.0749529
0.0749977
0.0749462
0.0749499
0.0749347
0.0748964
0.0749196
0.0748518
0.0748965
0.0750008
0.0749375
0.0749703
0.0749182
0.0749162
0.0748963
0.074854
0.0748708
0.0748066
0.0748417
0.074997
0.0749306
0.0749468
0.074894
0.0748843
0.0748581
0.074811
0.0748199
0.0747573
0.0747841
0.074989
0.0749269
0.0749338
0.0748748
0.0748536
0.0748195
0.0747659
0.0747652
0.0747023
0.0747209
0.0749907
0.0749302
0.0749267
0.0748585
0.0748238
0.0747794
0.0747171
0.074705
0.0746393
0.0746496
0.07501
0.0749439
0.0749243
0.0748443
0.0747941
0.0747366
0.0746627
0.0746365
0.0745654
0.0745673
0.0750453
0.0749691
0.0749284
0.074833
0.0747641
0.0746896
0.0746001
0.0745568
0.0744768
0.0744696
0.0750945
0.0750063
0.0749405
0.0748254
0.0747332
0.0746365
0.0745263
0.0744614
0.0743682
0.0743508
0.0751575
0.0750569
0.0749616
0.0748215
0.0747002
0.0745748
0.0744373
0.0743448
0.0742327
0.0742026
0.075235
0.0751227
0.0749926
0.074821
0.0746635
0.0745013
0.0743277
0.0741994
0.0740601
0.074014
0.0753263
0.0752047
0.075034
0.0748234
0.0746213
0.0744123
0.0741908
0.0740147
0.0738366
0.0737688
0.0754288
0.0753025
0.0750864
0.0748284
0.0745721
0.0743036
0.0740181
0.0737764
0.0735418
0.0734425
0.0755373
0.0754135
0.0751502
0.0748369
0.0745156
0.0741716
0.0737999
0.0734651
0.0731448
0.072997
0.0756451
0.0755323
0.0752262
0.0748517
0.0744542
0.0740149
0.0735258
0.0730549
0.0725985
0.0723683
0.0757446
0.0756509
0.0753159
0.0748804
0.0743963
0.073838
0.0731876
0.0725121
0.0718267
0.0714444
0.0758291
0.0757613
0.075423
0.0749386
0.0743637
0.0736607
0.0727893
0.0718012
0.0707085
0.0699939
0.0758963
0.0758564
0.0755518
0.0750521
0.0743968
0.0735257
0.0723539
0.0708832
0.0690531
0.0675251
0.0759486
0.0759318
0.0757105
0.0752713
0.0745856
0.0735445
0.0719935
0.069781
0.0666647
0.0625741
0.0759881
0.0759828
0.0759069
0.0756484
0.075033
0.0738453
0.0718557
0.0684212
0.063531
0.0515027
0.0761583
0.076202
0.0758896
0.0757659
0.075724
0.0757225
0.0757615
0.0758829
0.0761932
0.0761434
0.0756954
0.075676
0.0756422
0.0756447
0.0756295
0.0756279
0.0756401
0.075635
0.0756662
0.0756818
0.0755263
0.0753363
0.0754203
0.0754765
0.075478
0.0754762
0.0754712
0.075412
0.075325
0.0755112
0.0754715
0.0752287
0.0753274
0.0753561
0.0753536
0.0753514
0.0753496
0.0753173
0.0752149
0.0754534
0.075396
0.0751838
0.0752867
0.0752807
0.0752751
0.0752724
0.0752726
0.0752741
0.0751667
0.0753739
0.0753028
0.0751293
0.0752345
0.0752119
0.0752123
0.0752089
0.0752015
0.0752184
0.0751076
0.0752752
0.0752211
0.075075
0.0751732
0.0751417
0.0751494
0.0751451
0.0751283
0.0751525
0.0750473
0.0751861
0.0751589
0.0750337
0.0751193
0.0750803
0.0750914
0.0750859
0.075063
0.0750928
0.074998
0.0751138
0.0751101
0.075003
0.0750759
0.0750314
0.0750428
0.0750358
0.075009
0.0750414
0.0749567
0.0750519
0.0750691
0.0749771
0.0750388
0.0749915
0.0750014
0.0749923
0.0749621
0.0749938
0.0749172
0.074994
0.0750352
0.0749547
0.0750056
0.0749567
0.0749637
0.0749519
0.0749184
0.0749466
0.0748768
0.0749382
0.075009
0.0749366
0.0749765
0.0749261
0.0749285
0.0749132
0.0748762
0.0748995
0.0748351
0.0748836
0.0749916
0.0749233
0.0749517
0.0748995
0.0748958
0.0748758
0.074835
0.0748519
0.0747911
0.0748287
0.0749813
0.0749155
0.0749323
0.0748772
0.0748654
0.0748392
0.0747933
0.0748022
0.074743
0.0747714
0.0749764
0.0749133
0.0749196
0.0748591
0.0748365
0.0748021
0.0747497
0.0747489
0.0746891
0.074709
0.0749825
0.0749188
0.0749125
0.0748439
0.0748085
0.0747637
0.0747024
0.0746899
0.0746271
0.0746388
0.0750038
0.0749345
0.0749112
0.0748315
0.0747807
0.0747227
0.0746495
0.0746228
0.0745543
0.0745575
0.07504
0.0749614
0.0749171
0.0748224
0.0747527
0.0746775
0.0745887
0.0745445
0.0744668
0.0744609
0.0750904
0.0750006
0.0749315
0.0748172
0.0747239
0.0746263
0.0745167
0.0744507
0.0743594
0.0743431
0.0751554
0.0750538
0.0749553
0.0748159
0.0746933
0.0745668
0.0744297
0.074336
0.0742252
0.0741962
0.0752355
0.0751227
0.0749896
0.0748183
0.0746592
0.0744959
0.0743225
0.0741928
0.0740544
0.0740092
0.0753297
0.0752082
0.0750348
0.0748241
0.0746202
0.0744098
0.0741883
0.0740106
0.0738331
0.0737659
0.0754352
0.0753096
0.0750914
0.074833
0.0745747
0.0743046
0.0740189
0.0737754
0.0735409
0.0734421
0.0755457
0.0754236
0.0751597
0.0748458
0.0745222
0.0741763
0.0738041
0.0734675
0.0731471
0.0729997
0.0756534
0.0755434
0.0752395
0.0748648
0.0744647
0.074023
0.073533
0.0730605
0.072604
0.0723743
0.0757496
0.07566
0.0753312
0.0748964
0.074409
0.0738472
0.0731953
0.0725185
0.0718335
0.0714524
0.0758277
0.0757643
0.0754362
0.0749532
0.074373
0.0736645
0.0727907
0.0718016
0.0707105
0.0699983
0.0758868
0.0758505
0.0755561
0.0750554
0.0743905
0.0735104
0.0723339
0.070862
0.0690351
0.0675115
0.0759322
0.0759175
0.0756955
0.0752438
0.0745403
0.0734838
0.0719228
0.0697061
0.0665909
0.0625132
0.0759669
0.0759594
0.0758541
0.0755583
0.0749121
0.0737003
0.0716919
0.0682451
0.0633495
0.0513589
0.0762773
0.0763194
0.0760113
0.0758885
0.075847
0.0758455
0.0758842
0.0760046
0.0763108
0.0762627
0.0756914
0.0756674
0.0756388
0.0756409
0.0756258
0.0756242
0.0756363
0.0756316
0.0756576
0.0756779
0.0754764
0.0752789
0.0753647
0.0754188
0.0754202
0.0754184
0.0754134
0.0753564
0.0752676
0.0754613
0.0754417
0.0751985
0.0752988
0.0753256
0.0753234
0.0753212
0.075319
0.0752886
0.0751848
0.0754236
0.0753904
0.0751855
0.0752908
0.0752845
0.0752796
0.0752768
0.0752762
0.075278
0.0751683
0.0753684
0.0753096
0.0751466
0.0752536
0.0752316
0.0752325
0.0752291
0.0752211
0.0752373
0.0751247
0.0752821
0.075235
0.0751002
0.0751996
0.0751694
0.0751772
0.075173
0.0751559
0.0751788
0.0750723
0.0752
0.0751781
0.0750644
0.0751515
0.0751144
0.0751256
0.0751202
0.0750972
0.0751249
0.0750285
0.0751333
0.0751327
0.0750359
0.0751111
0.0750696
0.0750811
0.0750739
0.0750472
0.0750767
0.0749895
0.0750753
0.0750929
0.0750099
0.0750745
0.0750305
0.0750405
0.0750313
0.0750011
0.0750294
0.0749496
0.0750191
0.0750584
0.0749864
0.0750404
0.0749945
0.0750016
0.0749898
0.0749562
0.0749812
0.0749078
0.0749632
0.0750305
0.0749663
0.0750098
0.0749618
0.0749643
0.0749489
0.0749121
0.0749325
0.0748644
0.0749075
0.0750097
0.0749512
0.074984
0.0749329
0.0749293
0.0749091
0.0748684
0.0748829
0.0748188
0.074851
0.0749971
0.0749414
0.0749629
0.0749078
0.0748963
0.0748699
0.0748242
0.0748312
0.0747691
0.0747921
0.0749942
0.074938
0.0749469
0.0748863
0.0748648
0.0748303
0.0747779
0.0747755
0.0747136
0.0747285
0.075002
0.0749425
0.074937
0.0748683
0.0748344
0.0747894
0.074728
0.0747142
0.0746501
0.0746575
0.0750224
0.0749567
0.0749341
0.074854
0.0748047
0.0747462
0.0746728
0.074645
0.0745758
0.0745757
0.075057
0.0749822
0.0749395
0.074844
0.0747753
0.0746993
0.07461
0.074565
0.0744872
0.0744788
0.0751067
0.075021
0.0749542
0.0748384
0.0747456
0.0746471
0.0745367
0.07447
0.0743791
0.0743612
0.0751728
0.0750751
0.0749793
0.0748377
0.0747149
0.0745873
0.0744492
0.0743547
0.0742448
0.0742151
0.0752557
0.0751465
0.0750161
0.0748419
0.0746819
0.0745171
0.0743426
0.0742119
0.0740748
0.0740298
0.0753543
0.0752362
0.0750654
0.074851
0.0746454
0.0744332
0.0742103
0.0740315
0.0738556
0.0737896
0.0754648
0.075343
0.0751277
0.0748653
0.0746042
0.0743318
0.0740444
0.0737996
0.0735673
0.0734706
0.0755797
0.0754624
0.0752028
0.0748853
0.074558
0.074209
0.0738347
0.0734968
0.0731795
0.0730354
0.0756884
0.0755857
0.0752897
0.0749133
0.0745082
0.0740621
0.0735694
0.0730958
0.072644
0.0724198
0.0757794
0.0757008
0.0753869
0.0749535
0.0744591
0.0738906
0.0732352
0.0725581
0.0718813
0.0715094
0.0758442
0.0757954
0.075492
0.0750128
0.0744215
0.0737019
0.0728229
0.071835
0.0707588
0.0700631
0.0758827
0.0758625
0.0755982
0.0750966
0.0744119
0.0735138
0.0723293
0.0708601
0.0690586
0.0675659
0.0759011
0.0758988
0.0756884
0.075213
0.0744742
0.0733916
0.0718179
0.0696015
0.0665171
0.0624793
0.0759121
0.0758953
0.0757305
0.0753579
0.07466
0.0734228
0.0714004
0.0679439
0.0630615
0.0510442
0.076611
0.0766499
0.0763187
0.0762002
0.0761601
0.0761586
0.0761958
0.076312
0.0766415
0.0765971
0.075752
0.0757007
0.0756661
0.0756734
0.0756583
0.0756567
0.0756688
0.0756589
0.0756909
0.0757386
0.075413
0.0751914
0.0752773
0.0753332
0.0753341
0.0753323
0.0753279
0.075269
0.0751801
0.075398
0.0753558
0.0750951
0.0751967
0.0752249
0.0752231
0.0752209
0.0752184
0.0751865
0.0750813
0.0753378
0.0753019
0.0750792
0.0751832
0.0751792
0.0751749
0.0751721
0.075171
0.0751704
0.0750619
0.0752798
0.0752231
0.0750413
0.0751436
0.0751234
0.0751237
0.0751203
0.075113
0.0751273
0.0750194
0.0751954
0.0751551
0.0750036
0.0750965
0.0750674
0.0750732
0.0750689
0.075054
0.0750755
0.0749755
0.0751197
0.075107
0.0749795
0.0750598
0.075024
0.0750322
0.0750267
0.0750066
0.0750327
0.0749434
0.0750614
0.0750713
0.0749622
0.0750299
0.0749905
0.0749986
0.0749914
0.0749678
0.0749949
0.0749154
0.0750125
0.0750406
0.074946
0.0750022
0.0749609
0.0749676
0.0749583
0.0749313
0.0749564
0.0748852
0.0749652
0.0750128
0.0749307
0.0749765
0.0749335
0.0749372
0.0749252
0.0748949
0.0749165
0.0748517
0.0749162
0.0749906
0.0749176
0.0749536
0.0749087
0.0749079
0.0748922
0.0748585
0.0748755
0.0748151
0.0748654
0.0749751
0.0749083
0.0749347
0.0748869
0.0748799
0.0748595
0.0748218
0.0748331
0.0747751
0.0748126
0.0749672
0.074904
0.0749203
0.0748681
0.0748532
0.0748265
0.0747837
0.0747879
0.0747302
0.0747571
0.0749685
0.0749059
0.0749107
0.0748523
0.0748275
0.0747927
0.0747429
0.0747383
0.074679
0.0746973
0.0749802
0.0749153
0.074907
0.0748398
0.0748026
0.0747572
0.0746981
0.0746826
0.0746195
0.0746303
0.0750038
0.0749343
0.0749101
0.0748311
0.0747783
0.0747191
0.0746476
0.0746186
0.0745492
0.0745524
0.0750417
0.0749649
0.0749214
0.0748265
0.0747543
0.0746773
0.0745894
0.0745434
0.0744645
0.0744593
0.0750959
0.0750097
0.0749423
0.0748267
0.0747301
0.0746302
0.0745207
0.0744531
0.0743604
0.0743455
0.075168
0.0750712
0.0749743
0.0748322
0.0747052
0.0745759
0.0744381
0.0743426
0.0742305
0.0742036
0.0752587
0.0751519
0.0750192
0.0748436
0.0746789
0.074512
0.0743371
0.0742048
0.0740656
0.0740233
0.0753672
0.0752532
0.0750784
0.0748616
0.0746505
0.0744356
0.0742117
0.0740306
0.0738528
0.0737895
0.0754894
0.0753736
0.075153
0.0748872
0.0746199
0.0743438
0.0740547
0.0738069
0.0735732
0.0734796
0.0756159
0.0755079
0.0752436
0.0749222
0.0745876
0.0742335
0.0738569
0.0735152
0.0731977
0.0730575
0.0757319
0.0756443
0.0753501
0.0749706
0.0745564
0.0741031
0.0736072
0.0731295
0.0726801
0.0724619
0.0758206
0.0757654
0.0754717
0.0750389
0.074532
0.0739522
0.0732922
0.0726121
0.0719435
0.0715825
0.075873
0.0758532
0.075603
0.0751338
0.0745232
0.0737846
0.0728985
0.071911
0.0708571
0.0701849
0.0758975
0.0759116
0.0757326
0.0752488
0.074532
0.0736011
0.0724048
0.0709431
0.0691982
0.0677613
0.075889
0.0759233
0.0757978
0.0753302
0.0745402
0.0734049
0.07181
0.0696084
0.0666471
0.0627677
0.0758593
0.0758373
0.0756546
0.0752058
0.0744126
0.0731061
0.071055
0.0676199
0.0629417
0.0513681
0.0763297
0.0766079
0.0762722
0.0761516
0.076114
0.0761125
0.0761473
0.0762653
0.0765985
0.076315
0.0757657
0.07575
0.0756878
0.0756903
0.0756769
0.0756753
0.0756857
0.0756804
0.0757398
0.075752
0.0756475
0.075411
0.0754727
0.075521
0.0755229
0.0755211
0.0755157
0.0754642
0.0753995
0.0756326
0.0756176
0.0753535
0.0754373
0.0754652
0.0754652
0.0754631
0.0754588
0.0754271
0.0753397
0.0756001
0.0755193
0.0752992
0.0753853
0.0753883
0.0753859
0.0753833
0.0753804
0.0753727
0.0752822
0.0754981
0.0753953
0.0752197
0.0753036
0.0752936
0.0752934
0.07529
0.0752833
0.0752873
0.0751983
0.0753687
0.0752932
0.0751509
0.0752274
0.0752097
0.0752123
0.0752077
0.0751963
0.0752064
0.0751233
0.0752592
0.0752182
0.0751016
0.0751685
0.0751443
0.0751477
0.0751417
0.0751267
0.075141
0.0750659
0.0751744
0.0751599
0.0750644
0.0751205
0.0750909
0.0750938
0.0750865
0.0750683
0.0750848
0.0750181
0.0751033
0.0751111
0.0750317
0.0750773
0.0750442
0.0750457
0.0750363
0.075015
0.0750311
0.0749721
0.0750382
0.0750699
0.0750014
0.0750381
0.0750029
0.0750019
0.0749895
0.0749649
0.0749782
0.0749246
0.0749762
0.0750372
0.074976
0.0750044
0.0749669
0.0749619
0.0749458
0.0749173
0.0749262
0.0748751
0.0749162
0.0750137
0.0749566
0.0749765
0.0749359
0.0749252
0.0749044
0.0748711
0.0748743
0.0748238
0.0748566
0.0749996
0.0749435
0.0749547
0.0749095
0.0748915
0.0748642
0.0748251
0.0748215
0.0747704
0.0747958
0.0749958
0.0749385
0.0749395
0.0748875
0.0748601
0.0748246
0.0747782
0.0747664
0.0747129
0.0747316
0.0750038
0.0749429
0.0749317
0.0748704
0.074831
0.0747847
0.0747287
0.0747068
0.0746491
0.0746612
0.075025
0.0749584
0.0749322
0.0748583
0.0748038
0.0747436
0.0746749
0.0746403
0.074576
0.0745811
0.0750618
0.0749873
0.0749423
0.0748518
0.0747782
0.0747
0.0746146
0.0745638
0.0744899
0.074487
0.0751165
0.0750325
0.0749637
0.0748515
0.0747538
0.0746524
0.0745452
0.0744737
0.0743859
0.0743736
0.0751912
0.075097
0.0749981
0.0748584
0.0747304
0.0745993
0.0744634
0.0743651
0.0742579
0.0742339
0.0752868
0.0751836
0.0750478
0.0748734
0.0747077
0.0745388
0.0743652
0.0742315
0.0740972
0.0740579
0.0754016
0.0752936
0.0751146
0.0748978
0.0746857
0.0744686
0.0742456
0.0740643
0.0738919
0.0738317
0.0755297
0.0754246
0.0751998
0.0749331
0.0746649
0.0743868
0.0740981
0.0738516
0.0736245
0.0735342
0.0756584
0.0755669
0.075304
0.0749821
0.0746469
0.0742914
0.0739153
0.0735769
0.0732684
0.0731321
0.0757689
0.0757018
0.0754249
0.0750501
0.074636
0.074182