/*--------------------------------*- C++ -*----------------------------------*\
| =========                 |                                                 |
| \\      /  F ield         | OpenFOAM: The Open Source CFD Toolbox           |
|  \\    /   O peration     | Version:  4.1                                   |
|   \\  /    A nd           | Web:      www.OpenFOAM.org                      |
|    \\/     M anipulation  |                                                 |
\*---------------------------------------------------------------------------*/
FoamFile
{
    version     2.0;
    format      ascii;
    class       surfaceScalarField;
    location    "1800";
    object      phi;
}
// * * * * * * * * * * * * * * * * * * * * * * * * * * * * * * * * * * * * * //

dimensions      [0 3 -1 0 0 0 0];

internalField   nonuniform List<scalar> 
33700
(
4.95866e-05
0.000900906
4.95139e-05
2.30817e-05
0.00097137
5.51426e-05
8.43352e-06
0.000957389
5.72684e-05
3.14815e-06
0.000948189
5.7107e-05
8.36245e-08
0.000945731
5.73443e-05
-2.9879e-06
0.000945737
5.73446e-05
-8.29058e-06
0.000948204
5.71079e-05
-2.2969e-05
0.000957413
5.72715e-05
-4.95096e-05
0.000971401
5.5143e-05
0.000900882
4.961e-05
3.12621e-05
0.00083855
3.11063e-05
2.37109e-05
0.000940569
3.83663e-05
1.3416e-05
0.00092736
4.03424e-05
6.12062e-06
0.000915765
3.97406e-05
2.06641e-07
0.000911528
4.01396e-05
-5.72262e-06
0.000911544
4.0143e-05
-1.30495e-05
0.000915809
3.9737e-05
-2.33441e-05
0.000927412
4.03053e-05
-3.08763e-05
0.000940616
3.83223e-05
0.000838792
3.1215e-05
1.62194e-05
0.000806383
1.59541e-05
1.71236e-05
0.000916663
2.30137e-05
1.18829e-05
0.000908285
2.43316e-05
6.07983e-06
0.000897882
2.37057e-05
3.58629e-07
0.000893112
2.41572e-05
-5.37951e-06
0.000893123
2.41756e-05
-1.12496e-05
0.00089796
2.37306e-05
-1.65251e-05
0.000908349
2.43437e-05
-1.56942e-05
0.000916762
2.30257e-05
0.000807144
1.5955e-05
8.9704e-06
0.000788843
8.56997e-06
1.24864e-05
0.000899232
1.39212e-05
9.81311e-06
0.000896985
1.39851e-05
5.28346e-06
0.00088842
1.40059e-05
5.24313e-07
0.000883312
1.4573e-05
-4.1957e-06
0.000883276
1.4578e-05
-8.82023e-06
0.000888539
1.40508e-05
-1.1559e-05
0.000897056
1.40336e-05
-8.30197e-06
0.000899512
1.39916e-05
0.000790256
8.58737e-06
5.69395e-06
0.000778027
5.11851e-06
9.49108e-06
0.000886382
9.05333e-06
8.48832e-06
0.000890392
7.60006e-06
4.76375e-06
0.000883507
8.64558e-06
8.04701e-07
0.000878021
9.25675e-06
-3.20478e-06
0.000877978
9.31093e-06
-7.06769e-06
0.000883699
8.70352e-06
-8.3572e-06
0.000890599
7.74396e-06
-4.78599e-06
0.000886731
9.2084e-06
0.00078031
5.16007e-06
4.51724e-06
0.000769775
3.72914e-06
7.31789e-06
0.000876639
6.94028e-06
7.42581e-06
0.000886174
4.11149e-06
4.50695e-06
0.000880426
6.00149e-06
1.17069e-06
0.000874787
6.57242e-06
-2.27049e-06
0.00087484
6.57843e-06
-5.46046e-06
0.000880853
6.03323e-06
-5.82123e-06
0.000886739
4.21779e-06
-3.255e-06
0.000877105
7.05858e-06
0.000773267
3.78975e-06
4.35807e-06
0.000762101
3.31028e-06
5.86356e-06
0.000868831
6.29852e-06
6.6561e-06
0.000883034
2.34526e-06
4.41646e-06
0.000877751
4.91401e-06
1.61092e-06
0.000872358
5.23405e-06
-1.28957e-06
0.000872496
5.2439e-06
-3.95024e-06
0.000878589
4.92123e-06
-3.6982e-06
0.000884161
2.32441e-06
-2.66719e-06
0.000869686
6.38774e-06
0.00076718
3.42207e-06
4.60676e-06
0.000754295
3.19421e-06
5.04056e-06
0.000862267
6.1266e-06
6.29895e-06
0.000880387
1.3844e-06
4.52702e-06
0.00087505
4.4701e-06
2.09107e-06
0.000870258
4.5341e-06
-3.10886e-07
0.000870404
4.49153e-06
-2.66765e-06
0.000876466
4.47886e-06
-2.2804e-06
0.000882337
1.43691e-06
-2.25238e-06
0.000863245
6.41462e-06
0.000761612
3.31854e-06
4.98636e-06
0.000746237
3.07001e-06
4.7992e-06
0.000856254
6.19669e-06
6.35929e-06
0.000877995
8.2896e-07
4.82592e-06
0.000872257
4.324e-06
2.79154e-06
0.000868226
4.06387e-06
7.19013e-07
0.000868394
4.08105e-06
-1.57455e-06
0.000874367
4.39241e-06
-1.18991e-06
0.00088099
9.63109e-07
-1.74857e-06
0.000857217
6.59064e-06
0.000756649
3.21825e-06
5.45613e-06
0.000737889
2.89294e-06
4.97934e-06
0.000850466
6.26412e-06
6.83202e-06
0.000875603
5.36648e-07
5.38888e-06
0.00086941
4.28713e-06
3.79493e-06
0.000866076
3.74273e-06
1.87313e-06
0.000866539
3.77655e-06
-4.82811e-07
0.000872333
4.39112e-06
2.45185e-08
0.000879885
6.01034e-07
-1.20961e-06
0.000851729
6.72723e-06
0.000752268
3.17642e-06
6.10745e-06
0.000729049
2.73716e-06
5.4723e-06
0.000844816
6.28729e-06
7.72366e-06
0.000873022
3.29798e-07
6.38162e-06
0.000866522
4.22976e-06
5.04718e-06
0.00086395
3.46111e-06
3.25111e-06
0.000864882
3.45527e-06
7.89763e-07
0.000870457
4.33978e-06
1.3906e-06
0.00087903
2.59629e-07
-5.76432e-07
0.000846939
6.76416e-06
0.000748513
3.18547e-06
6.97937e-06
0.000719517
2.56048e-06
6.39178e-06
0.00083919
6.21802e-06
9.06028e-06
0.000870189
1.66671e-07
7.81392e-06
0.000863635
4.1354e-06
6.67727e-06
0.000861918
3.17087e-06
4.97351e-06
0.000863477
3.11186e-06
2.32057e-06
0.000868864
4.25155e-06
2.95906e-06
0.000878472
-7.44256e-08
1.51729e-07
0.000843098
6.65714e-06
0.000745438
3.23385e-06
8.19088e-06
0.000708958
2.37965e-06
7.76647e-06
0.000833583
6.03963e-06
1.08623e-05
0.000867092
6.31353e-09
9.75054e-06
0.000860756
3.99537e-06
8.79435e-06
0.000859994
2.88617e-06
7.13696e-06
0.000862368
2.77212e-06
4.24171e-06
0.00086762
4.14571e-06
4.76021e-06
0.000878333
-3.70712e-07
1.00083e-06
0.000840441
6.42715e-06
0.000743133
3.31403e-06
9.85424e-06
0.000696883
2.23749e-06
9.66279e-06
0.00082797
5.81632e-06
1.32716e-05
0.000863644
-1.51227e-07
1.23442e-05
0.000857848
3.84341e-06
1.15411e-05
0.000858173
2.63095e-06
9.87686e-06
0.000861572
2.46944e-06
6.65433e-06
0.000866815
4.03629e-06
6.82276e-06
0.000878765
-5.89896e-07
2.06275e-06
0.000839054
6.15922e-06
0.000741787
3.41824e-06
1.20266e-05
0.000682781
2.09628e-06
1.23271e-05
0.000822119
5.56645e-06
1.64808e-05
0.000859698
-1.96369e-07
1.57999e-05
0.000854841
3.69798e-06
1.51185e-05
0.000856422
2.44323e-06
1.3385e-05
0.000861099
2.21739e-06
9.71114e-06
0.000866566
3.93539e-06
9.30131e-06
0.000879904
-7.16349e-07
3.40372e-06
0.000839069
5.89657e-06
0.000741685
3.51764e-06
1.48616e-05
0.000665966
1.97771e-06
1.59982e-05
0.000815669
5.33208e-06
2.07148e-05
0.000855106
-1.08879e-07
2.03695e-05
0.000851619
3.58077e-06
1.97687e-05
0.000854696
2.34024e-06
1.78956e-05
0.000860956
2.02972e-06
1.36473e-05
0.000866975
3.85379e-06
1.2382e-05
0.000881935
-7.50355e-07
5.08833e-06
0.000840712
5.66828e-06
0.000743156
3.62992e-06
1.85526e-05
0.000645489
1.95266e-06
2.09432e-05
0.000808123
5.17661e-06
2.62946e-05
0.000849652
1.20328e-07
2.63694e-05
0.000848027
3.53391e-06
2.58151e-05
0.000852906
2.36066e-06
2.3712e-05
0.00086114
1.93611e-06
1.87218e-05
0.000868162
3.82092e-06
1.62681e-05
0.000885076
-6.68895e-07
7.24776e-06
0.000844252
5.50024e-06
0.000746594
3.82466e-06
2.32909e-05
0.000620135
2.09591e-06
2.75431e-05
0.000798728
5.16877e-06
3.3641e-05
0.000843038
5.3801e-07
3.42029e-05
0.000843877
3.60831e-06
3.36875e-05
0.000850904
2.53724e-06
3.12254e-05
0.000861639
1.98298e-06
2.52559e-05
0.000870275
3.87678e-06
2.12363e-05
0.000889574
-4.57573e-07
1.00421e-05
0.000850044
5.42514e-06
0.000752485
4.16831e-06
2.92773e-05
0.000588364
2.53288e-06
3.62561e-05
0.000786361
5.41852e-06
4.3259e-05
0.000834844
1.21659e-06
4.43835e-05
0.000838902
3.87405e-06
4.38977e-05
0.000848491
2.92261e-06
4.09445e-05
0.000862393
2.22395e-06
3.37159e-05
0.000873448
4.08039e-06
2.76928e-05
0.000895687
-6.48391e-08
1.36767e-05
0.000858585
5.50193e-06
0.000761453
4.72867e-06
3.66755e-05
0.000548275
3.45869e-06
4.76275e-05
0.000769344
6.09926e-06
5.5777e-05
0.00082447
2.25478e-06
5.75649e-05
0.000832723
4.41849e-06
5.70947e-05
0.000845389
3.59936e-06
5.35108e-05
0.000863262
2.74162e-06
4.47218e-05
0.000877762
4.50287e-06
3.61623e-05
0.000903673
6.01882e-07
1.84234e-05
0.000870532
5.82195e-06
0.000774293
5.60494e-06
4.55101e-05
0.000497726
5.09261e-06
6.22634e-05
0.000745208
7.42208e-06
7.19651e-05
0.000810991
3.81183e-06
7.45468e-05
0.000824797
5.37666e-06
7.41102e-05
0.000841175
4.68156e-06
6.97784e-05
0.000863967
3.65845e-06
5.90898e-05
0.000883231
5.25149e-06
4.72892e-05
0.00091385
1.65459e-06
2.4701e-05
0.000886664
6.48824e-06
0.000792109
6.90999e-06
5.55563e-05
0.000434537
7.69606e-06
8.05929e-05
0.000710548
9.66763e-06
9.26945e-05
0.00079286
6.06713e-06
9.62788e-05
0.000814318
6.93051e-06
9.59837e-05
0.000835187
6.31774e-06
9.08915e-05
0.000863966
5.12701e-06
7.79441e-05
0.000889731
6.48114e-06
6.20103e-05
0.000926583
3.23358e-06
3.30981e-05
0.000907947
7.66488e-06
0.000816418
8.81483e-06
6.60834e-05
0.000357162
1.13674e-05
0.000102611
0.000660988
1.30827e-05
0.000118745
0.000767456
9.31338e-06
0.00012386
0.000799929
9.31235e-06
0.000124022
0.000826353
8.70943e-06
0.000118358
0.000862296
7.37169e-06
0.000102887
0.000896828
8.41031e-06
8.17496e-05
0.000942226
5.53064e-06
4.45196e-05
0.000935633
9.58045e-06
0.000849398
1.15666e-05
7.5528e-05
0.000265851
1.58714e-05
0.000127161
0.00059169
1.77201e-05
0.000150458
0.000730348
1.38572e-05
0.000158499
0.000779074
1.28585e-05
0.000159863
0.0008129
1.21322e-05
0.0001542
0.000857329
1.0671e-05
0.000136235
0.000903494
1.13394e-05
0.000108706
0.000960962
8.83106e-06
6.03804e-05
0.000971433
1.25658e-05
0.000894282
1.55277e-05
8.11348e-05
0.000164508
2.03173e-05
0.000150978
0.000498801
2.31052e-05
0.000186963
0.000674479
1.99357e-05
0.000201264
0.000746721
1.8101e-05
0.000205511
0.000791705
1.69972e-05
0.000201116
0.000846392
1.53795e-05
0.000181377
0.000907636
1.56434e-05
0.000146451
0.000982406
1.35238e-05
8.32635e-05
0.00101759
1.70784e-05
0.000956338
2.12395e-05
7.81484e-05
6.42545e-05
2.22544e-05
0.000167536
0.000381667
2.78157e-05
0.000224825
0.000589563
2.76835e-05
0.000252459
0.000693238
2.5903e-05
0.000263478
0.000756733
2.40076e-05
0.000262921
0.00082505
2.19529e-05
0.000243379
0.000905452
2.17758e-05
0.00020084
0.0010049
2.0098e-05
0.000117425
0.0010773
2.37511e-05
0.00104434
2.94667e-05
5.79326e-05
-1.34881e-05
2.00259e-05
0.000166843
0.000243419
2.94282e-05
0.000256617
0.000463407
3.64442e-05
0.000309414
0.000603262
3.72381e-05
0.000335508
0.000696282
3.44167e-05
0.000344293
0.000785159
3.11658e-05
0.000329621
0.000889878
3.03052e-05
0.00028186
0.00102356
2.9149e-05
0.000173656
0.00115199
3.35654e-05
0.00117648
4.15517e-05
1.17666e-05
-5.11894e-05
2.62111e-05
0.000139944
8.01348e-05
3.52553e-05
0.000271179
0.000284076
4.81848e-05
0.000365422
0.000456367
5.27239e-05
0.000422381
0.000590047
4.93447e-05
0.00045184
0.000711763
4.40061e-05
0.00045158
0.000848486
4.17115e-05
0.000405607
0.00102852
4.10746e-05
0.000269353
0.00124093
4.73681e-05
0.00138671
5.9148e-05
-6.84447e-07
-8.02086e-05
3.00329e-05
0.00010185
-6.91543e-05
4.69831e-05
0.000250655
6.81198e-05
6.72889e-05
0.000391994
0.000238763
7.63669e-05
0.000505434
0.00040439
7.23099e-05
0.000583924
0.000570217
6.3143e-05
0.000625001
0.000749935
5.75661e-05
0.000597293
0.000999814
5.64876e-05
0.000477258
0.00129433
6.67116e-05
0.00177871
8.53189e-05
7.65754e-05
6.25287e-06
-0.000162791
0.000175462
2.48566e-05
-0.000192672
0.000281694
5.91679e-05
-9.70552e-05
0.000406956
8.55345e-05
2.81927e-05
0.000558105
9.29963e-05
0.000160431
0.000711261
8.63688e-05
0.000330854
0.000851258
7.65043e-05
0.000533566
0.000904652
7.27574e-05
0.000873772
0.000893172
8.31588e-05
0.00122274
0.00011913
0.00255278
5.52048e-05
0.000971301
2.30078e-05
2.10462e-05
0.00106831
2.0987e-05
6.60024e-06
0.00105019
2.15241e-05
2.32592e-06
0.0010397
2.16809e-05
6.55015e-08
0.0010378
2.18055e-05
-2.20234e-06
0.00103781
2.18054e-05
-6.50336e-06
0.00103973
2.16793e-05
-2.10589e-05
0.00105031
2.15213e-05
-5.55151e-05
0.00106858
2.10186e-05
0.000971017
2.3079e-05
3.85054e-05
0.00094038
2.35232e-05
2.30119e-05
0.00109933
2.28493e-05
1.29762e-05
0.00107773
2.28465e-05
5.84699e-06
0.00106355
2.30289e-05
1.89413e-07
0.00106039
2.32113e-05
-5.48775e-06
0.00106042
2.32111e-05
-1.26778e-05
0.00106365
2.3018e-05
-2.27699e-05
0.00107789
2.28217e-05
-3.8078e-05
0.00109934
2.28792e-05
0.000940548
2.361e-05
2.32506e-05
0.000916283
1.68073e-05
1.71617e-05
0.00111156
1.68792e-05
1.1554e-05
0.00109118
1.64947e-05
5.75596e-06
0.00107652
1.65387e-05
3.725e-07
0.00107325
1.66919e-05
-5.04109e-06
0.00107333
1.66919e-05
-1.08886e-05
0.00107672
1.65256e-05
-1.65346e-05
0.00109147
1.64284e-05
-2.26297e-05
0.00111164
1.68372e-05
0.00091699
1.68894e-05
1.42808e-05
0.00089857
1.20131e-05
1.39613e-05
0.00111228
1.35389e-05
9.54301e-06
0.00109652
1.30805e-05
4.74229e-06
0.00108219
1.31462e-05
5.83203e-07
0.00107861
1.338e-05
-3.65392e-06
0.00107886
1.32988e-05
-8.54754e-06
0.00108258
1.30944e-05
-1.31518e-05
0.00109716
1.29584e-05
-1.34589e-05
0.00111236
1.35908e-05
0.00090005
1.20743e-05
9.56903e-06
0.000885327
8.8035e-06
1.29194e-05
0.00110565
1.23393e-05
8.61716e-06
0.0010973
1.11312e-05
4.36022e-06
0.00108377
1.13332e-05
8.24883e-07
0.00107986
1.15582e-05
-2.76921e-06
0.00108026
1.15195e-05
-7.18874e-06
0.00108447
1.12505e-05
-1.15886e-05
0.00109831
1.10135e-05
-8.54533e-06
0.00110634
1.2197e-05
0.000887698
8.97354e-06
7.62475e-06
0.000875026
6.41606e-06
1.2265e-05
0.00109651
1.14522e-05
8.02751e-06
0.0010963
9.36497e-06
4.27155e-06
0.00108396
9.5909e-06
1.11793e-06
0.00107978
9.82153e-06
-2.09662e-06
0.00108023
9.8479e-06
-6.0203e-06
0.00108485
9.59055e-06
-1.04178e-05
0.00109754
9.39579e-06
-6.34819e-06
0.00109808
1.12624e-05
0.000878619
6.52632e-06
7.24107e-06
0.000866415
4.69094e-06
1.17416e-05
0.00108769
1.06361e-05
7.51926e-06
0.00109499
7.89537e-06
4.25421e-06
0.0010839
8.25207e-06
1.48857e-06
0.00107935
8.4561e-06
-1.4026e-06
0.00107988
8.49694e-06
-4.9505e-06
0.00108497
8.37261e-06
-9.74828e-06
0.00109659
8.09339e-06
-5.53474e-06
0.00108942
1.08472e-05
0.000871915
4.5977e-06
7.4163e-06
0.000858781
3.42189e-06
1.15703e-05
0.00107959
1.00865e-05
7.33581e-06
0.00109372
6.89995e-06
4.43114e-06
0.0010838
7.49744e-06
1.98908e-06
0.00107875
7.59059e-06
-6.65532e-07
0.00107956
7.49175e-06
-3.92607e-06
0.00108511
7.60766e-06
-8.65517e-06
0.0010957
7.0664e-06
-5.30476e-06
0.00108243
1.0063e-05
0.000866397
3.53781e-06
7.90357e-06
0.000851371
2.58525e-06
1.14422e-05
0.00107278
9.47614e-06
7.50252e-06
0.00109238
6.12452e-06
4.89666e-06
0.0010837
7.04415e-06
2.62946e-06
0.0010783
6.80233e-06
1.2854e-07
0.00107948
6.67634e-06
-2.89329e-06
0.00108546
7.08097e-06
-7.29516e-06
0.00109495
6.12308e-06
-5.14349e-06
0.00107774
9.14044e-06
0.000861546
2.93232e-06
8.4905e-06
0.000843751
2.03214e-06
1.14593e-05
0.0010672
8.88732e-06
7.95928e-06
0.00109103
5.40711e-06
5.61349e-06
0.00108362
6.73909e-06
3.4221e-06
0.00107822
6.0416e-06
1.02699e-06
0.00107959
6.08098e-06
-1.84477e-06
0.00108599
6.74999e-06
-6.19929e-06
0.00109466
5.26019e-06
-4.81112e-06
0.00107446
8.62883e-06
0.000857565
2.35267e-06
9.1965e-06
0.000835684
1.61624e-06
1.18598e-05
0.00106238
8.45741e-06
8.71862e-06
0.00108978
4.73674e-06
6.56649e-06
0.00108351
6.50909e-06
4.47487e-06
0.00107826
5.52731e-06
2.12933e-06
0.00107984
5.56798e-06
-7.10365e-07
0.00108668
6.50171e-06
-5.16115e-06
0.00109481
4.57082e-06
-4.28158e-06
0.00107203
8.32454e-06
0.000854645
1.83162e-06
1.00479e-05
0.000826874
1.33307e-06
1.2493e-05
0.00105817
8.00104e-06
9.77923e-06
0.00108853
4.14372e-06
7.83886e-06
0.00108326
6.3481e-06
5.83891e-06
0.00107835
5.11155e-06
3.49883e-06
0.00108017
5.14204e-06
6.1368e-07
0.00108749
6.34453e-06
-4.03811e-06
0.00109539
4.01357e-06
-3.52896e-06
0.00107005
8.1404e-06
0.000853004
1.35479e-06
1.10742e-05
0.000817136
1.05685e-06
1.35904e-05
0.00105403
7.67069e-06
1.12918e-05
0.00108711
3.74659e-06
9.54246e-06
0.00108279
6.23494e-06
7.61073e-06
0.00107842
4.77046e-06
5.23653e-06
0.00108056
4.78037e-06
2.20372e-06
0.00108848
6.20605e-06
-2.67653e-06
0.00109634
3.57839e-06
-2.55365e-06
0.00106839
7.97311e-06
0.000852819
9.5538e-07
1.23975e-05
0.000806224
7.6835e-07
1.53127e-05
0.00104944
7.51074e-06
1.33967e-05
0.00108541
3.48067e-06
1.18081e-05
0.00108211
6.14203e-06
9.92709e-06
0.00107844
4.50724e-06
7.47949e-06
0.00108104
4.45659e-06
4.20541e-06
0.00108973
6.08021e-06
-9.1179e-07
0.00109766
3.21484e-06
-1.38068e-06
0.0010673
7.73798e-06
0.00085417
6.97933e-07
1.41226e-05
0.000793634
5.83478e-07
1.75713e-05
0.00104425
7.32943e-06
1.61879e-05
0.00108333
3.29464e-06
1.47802e-05
0.00108116
6.07281e-06
1.29472e-05
0.00107842
4.32629e-06
1.03746e-05
0.00108166
4.19345e-06
6.77081e-06
0.00109129
6.003e-06
1.32109e-06
0.0010995
2.91369e-06
-5.1124e-09
0.00106706
7.47473e-06
0.000857111
5.83698e-07
1.63854e-05
0.000778719
5.31176e-07
2.0561e-05
0.00103826
7.16552e-06
1.98551e-05
0.00108072
3.23612e-06
1.86603e-05
0.00107994
6.02743e-06
1.68715e-05
0.00107833
4.241e-06
1.411e-05
0.00108249
3.99301e-06
1.00608e-05
0.00109326
5.94733e-06
4.1297e-06
0.00110201
2.69742e-06
1.61924e-06
0.00106804
7.22e-06
0.000861759
6.14655e-07
1.93484e-05
0.000760729
6.2246e-07
2.45804e-05
0.00103112
7.11457e-06
2.4667e-05
0.00107745
3.32842e-06
2.37186e-05
0.0010784
6.04938e-06
2.19692e-05
0.0010782
4.26904e-06
1.89384e-05
0.0010836
3.8775e-06
1.4294e-05
0.00109582
5.93382e-06
7.69238e-06
0.00110539
2.57226e-06
3.62692e-06
0.00107065
6.97877e-06
0.000868428
7.98432e-07
2.31808e-05
0.000738757
9.20381e-07
2.99145e-05
0.00102237
7.2084e-06
3.0938e-05
0.00107339
3.607e-06
3.02989e-05
0.00107648
6.19488e-06
2.85709e-05
0.00107806
4.43898e-06
2.51866e-05
0.0010851
3.89937e-06
1.97795e-05
0.00109911
6.01736e-06
1.22317e-05
0.00110993
2.56743e-06
6.17004e-06
0.00107537
6.78909e-06
0.000877639
1.14495e-06
2.80632e-05
0.00071177
1.49474e-06
3.69917e-05
0.00101133
7.56415e-06
3.91038e-05
0.00106836
4.16616e-06
3.88353e-05
0.00107413
6.52919e-06
3.71057e-05
0.00107794
4.79968e-06
3.32668e-05
0.00108711
4.08144e-06
2.68925e-05
0.00110338
6.21815e-06
1.80196e-05
0.00111605
2.71684e-06
9.42306e-06
0.00108278
6.71565e-06
0.000890133
1.6782e-06
3.41802e-05
0.000678604
2.48596e-06
4.63167e-05
0.000996982
8.34953e-06
4.97081e-05
0.00106214
5.11516e-06
4.98693e-05
0.00107128
7.13618e-06
4.81309e-05
0.00107788
5.43513e-06
4.37305e-05
0.00108979
4.49445e-06
3.61237e-05
0.00110894
6.57267e-06
2.54176e-05
0.00112431
3.08029e-06
1.36137e-05
0.00109356
6.87149e-06
0.000906924
2.44891e-06
4.1632e-05
0.000637954
4.15676e-06
5.83348e-05
0.000978018
9.7202e-06
6.33761e-05
0.00105437
6.57644e-06
6.40689e-05
0.00106787
8.13503e-06
6.23597e-05
0.00107785
6.45911e-06
5.73159e-05
0.00109327
5.25471e-06
4.81648e-05
0.00111619
7.18649e-06
3.50181e-05
0.0011354
3.74607e-06
1.90735e-05
0.00110872
7.31327e-06
0.000929364
3.56673e-06
5.04242e-05
0.000588489
6.78746e-06
7.3585e-05
0.000952563
1.20016e-05
8.08588e-05
0.00104446
8.74445e-06
8.22669e-05
0.00106372
9.70946e-06
8.07035e-05
0.00107774
8.02715e-06
7.50025e-05
0.00109764
6.49867e-06
6.40057e-05
0.0011255
8.20513e-06
4.76775e-05
0.00115016
4.82827e-06
2.62933e-05
0.00112966
8.14011e-06
0.0009593
5.19681e-06
6.0333e-05
0.000528858
1.07216e-05
9.23076e-05
0.000918221
1.5491e-05
0.000102974
0.0010312
1.19484e-05
0.000105479
0.00105847
1.21061e-05
0.000104324
0.00107731
1.03414e-05
9.81122e-05
0.00110283
8.42759e-06
8.50321e-05
0.00113722
9.80501e-06
6.46311e-05
0.00116964
6.48964e-06
3.60461e-05
0.00115832
9.53634e-06
0.00099938
7.5578e-06
7.06578e-05
0.000457945
1.61871e-05
0.000114291
0.000871857
2.0493e-05
0.000130451
0.00101239
1.65469e-05
0.000134909
0.00105122
1.56866e-05
0.000134726
0.00107596
1.36966e-05
0.000128472
0.00110848
1.13199e-05
0.000113294
0.00115154
1.2237e-05
8.7816e-05
0.001195
8.97458e-06
4.9584e-05
0.00119741
1.17419e-05
0.00105357
1.09505e-05
8.00209e-05
0.000375604
2.27038e-05
0.00013844
0.00080946
2.71245e-05
0.000163624
0.000984215
2.29639e-05
0.000171952
0.00104003
2.10029e-05
0.000173873
0.00107253
1.85464e-05
0.000168617
0.00111359
1.55584e-05
0.00015186
0.00116816
1.58157e-05
0.000120425
0.00122739
1.26105e-05
6.91894e-05
0.00125066
1.51045e-05
0.00112826
1.57624e-05
8.58174e-05
0.000283529
2.85846e-05
0.000161817
0.00072653
3.4788e-05
0.000201772
0.0009404
3.15797e-05
0.00021803
0.00102095
2.8755e-05
0.000224366
0.00106476
2.54811e-05
0.000222149
0.0011162
2.15977e-05
0.000205412
0.00118577
2.09331e-05
0.000167735
0.00126743
1.77629e-05
9.8567e-05
0.00132344
2.01766e-05
0.00123382
2.25062e-05
8.4391e-05
0.000188448
3.0792e-05
0.000179218
0.000619994
4.11757e-05
0.000242046
0.00087185
4.21964e-05
0.000273764
0.000986706
3.97973e-05
0.00028926
0.00104844
3.5264e-05
0.00029398
0.00111281
2.98635e-05
0.000281056
0.00120115
2.78677e-05
0.000239022
0.00131392
2.47183e-05
0.000147644
0.00142094
2.7467e-05
0.0013911
3.19393e-05
6.96112e-05
0.000115458
2.96882e-05
0.00018461
0.000494569
4.57235e-05
0.000279589
0.000770903
5.41824e-05
0.000338309
0.000926671
5.40632e-05
0.000371848
0.00101628
4.79894e-05
0.000390619
0.00109803
4.00344e-05
0.000389487
0.00120809
3.59305e-05
0.000350025
0.0013617
3.27818e-05
0.000232799
0.00154874
3.68288e-05
0.00163845
4.46204e-05
4.88239e-05
7.61556e-05
2.06166e-05
0.00017295
0.000368787
4.86861e-05
0.000301685
0.000643489
6.60036e-05
0.000402225
0.000832913
6.96144e-05
0.000471809
0.000956939
6.20942e-05
0.000518924
0.00106369
5.03899e-05
0.000546418
0.00119523
4.29558e-05
0.000521895
0.00140334
3.93964e-05
0.000420852
0.00166939
4.7139e-05
0.00208398
6.06617e-05
6.60298e-05
-1.46434e-05
3.12896e-05
0.000176472
3.17972e-05
0.000251517
0.000314174
5.76351e-05
0.000507392
0.000449852
6.55043e-05
0.000717325
0.000570532
5.87039e-05
0.000870607
0.00067337
4.53347e-05
0.00100194
0.000771681
3.52626e-05
0.00113822
0.000804562
3.16586e-05
0.00141162
0.000800948
4.54671e-05
0.00171075
7.52436e-05
0.00292884
5.73271e-05
0.000957328
8.35315e-06
2.15793e-05
0.0010502
6.53709e-06
6.48775e-06
0.00103019
6.42896e-06
2.18125e-06
0.00101955
6.4404e-06
5.93695e-08
0.00101747
6.45518e-06
-2.07088e-06
0.00101748
6.45455e-06
-6.40698e-06
0.00101958
6.43825e-06
-2.16387e-05
0.00103033
6.4273e-06
-5.77583e-05
0.00105059
6.55352e-06
0.000956944
8.37822e-06
4.04791e-05
0.000927165
1.32108e-05
2.29977e-05
0.00107774
1.27942e-05
1.25627e-05
0.00105108
1.23924e-05
5.76923e-06
0.0010369
1.2473e-05
1.77946e-07
0.00103376
1.252e-05
-5.439e-06
0.0010338
1.2518e-05
-1.23113e-05
0.00103701
1.24669e-05
-2.27841e-05
0.00105124
1.23919e-05
-3.98486e-05
0.00107771
1.28333e-05
0.000927448
1.32605e-05
2.45687e-05
0.000907879
1.15317e-05
1.67624e-05
0.00109121
1.12296e-05
1.09506e-05
0.00106275
1.06417e-05
5.64507e-06
0.00104803
1.07166e-05
3.68294e-07
0.00104495
1.07787e-05
-4.93939e-06
0.00104503
1.07748e-05
-1.03162e-05
0.00104821
1.07066e-05
-1.62113e-05
0.00106295
1.06289e-05
-2.38904e-05
0.001091
1.12313e-05
0.000908863
1.15887e-05
1.43523e-05
0.000896265
9.28391e-06
1.34871e-05
0.00109657
9.04888e-06
8.95443e-06
0.00107189
8.4831e-06
4.55347e-06
0.00105705
8.5404e-06
5.81088e-07
0.00105367
8.63794e-06
-3.46103e-06
0.00105375
8.6241e-06
-7.97491e-06
0.00105731
8.52325e-06
-1.26821e-05
0.00107215
8.47342e-06
-1.34975e-05
0.00109635
9.07203e-06
0.000898125
9.31981e-06
8.10409e-06
0.000889243
7.73064e-06
1.16453e-05
0.00109745
7.92308e-06
8.11471e-06
0.00107911
7.44992e-06
4.13557e-06
0.00106481
7.55286e-06
8.15601e-07
0.00106084
7.71606e-06
-2.56379e-06
0.00106096
7.70127e-06
-6.72238e-06
0.0010652
7.53388e-06
-1.05385e-05
0.00107955
7.44491e-06
-7.04035e-06
0.0010971
7.9564e-06
0.000892317
7.74656e-06
4.81469e-06
0.000884497
6.35837e-06
1.01581e-05
0.00109649
7.08529e-06
7.41874e-06
0.00108473
6.49838e-06
4.01189e-06
0.00107119
6.63239e-06
1.09578e-06
0.00106675
6.84355e-06
-1.8777e-06
0.00106695
6.84322e-06
-5.49467e-06
0.00107179
6.62674e-06
-8.44411e-06
0.00108542
6.48173e-06
-3.42525e-06
0.00109628
7.06948e-06
0.000888973
6.45014e-06
3.23215e-06
0.000880688
5.27745e-06
9.07023e-06
0.00109507
6.22624e-06
6.68667e-06
0.00108963
5.38542e-06
3.9367e-06
0.00107659
5.60796e-06
1.45954e-06
0.00107186
5.83288e-06
-1.11553e-06
0.00107219
5.83677e-06
-4.11602e-06
0.00107754
5.63271e-06
-6.67316e-06
0.00109067
5.40367e-06
-1.4026e-06
0.00109558
6.28411e-06
0.000886779
5.39461e-06
2.57787e-06
0.000877056
4.48573e-06
8.32864e-06
0.00109384
5.57576e-06
6.19682e-06
0.00109422
4.45652e-06
4.05273e-06
0.00108144
4.80753e-06
1.96382e-06
0.00107656
4.99234e-06
-3.22991e-07
0.001077
4.98057e-06
-2.80087e-06
0.00108279
4.84198e-06
-5.32197e-06
0.00109579
4.48211e-06
-3.32325e-07
0.00109504
5.62946e-06
0.000885378
4.61082e-06
2.48517e-06
0.0008733
3.86613e-06
7.92035e-06
0.0010927
5.19549e-06
6.04211e-06
0.00109844
3.79988e-06
4.46907e-06
0.00108579
4.27867e-06
2.58475e-06
0.00108088
4.3807e-06
4.91344e-07
0.00108145
4.33853e-06
-1.54802e-06
0.00108762
4.29709e-06
-4.03407e-06
0.00110066
3.74446e-06
3.61579e-07
0.00109471
5.0773e-06
0.000884525
4.15246e-06
2.65691e-06
0.000869206
3.47931e-06
7.81677e-06
0.00109156
4.87953e-06
6.18861e-06
0.00110223
3.25713e-06
5.13857e-06
0.00108969
3.90964e-06
3.35176e-06
0.00108484
3.88813e-06
1.4092e-06
0.00108563
3.85609e-06
-2.64796e-07
0.00109214
3.9217e-06
-2.71533e-06
0.00110525
3.131e-06
1.01786e-06
0.00109497
4.64282e-06
0.000884016
3.88622e-06
3.009e-06
0.000864587
3.23699e-06
8.02374e-06
0.00109036
4.65202e-06
6.63175e-06
0.0011056
2.77443e-06
6.02648e-06
0.00109319
3.63022e-06
4.37215e-06
0.00108854
3.49682e-06
2.5217e-06
0.0010896
3.46016e-06
1.08934e-06
0.00109644
3.64423e-06
-1.44913e-06
0.00110974
2.63593e-06
1.74543e-06
0.00109575
4.36256e-06
0.000883967
3.63413e-06
3.60307e-06
0.000859263
3.06653e-06
8.54654e-06
0.00108896
4.47229e-06
7.4271e-06
0.00110852
2.36083e-06
7.22058e-06
0.00109634
3.4262e-06
5.6991e-06
0.00109201
3.18076e-06
3.89328e-06
0.00109343
3.13651e-06
2.60385e-06
0.00110064
3.4501e-06
-7.01129e-08
0.00111422
2.22093e-06
2.5927e-06
0.00109706
4.18257e-06
0.000884497
3.42699e-06
4.47487e-06
0.000852927
2.93141e-06
9.46228e-06
0.0010873
4.36013e-06
8.68251e-06
0.001111
2.06173e-06
8.82815e-06
0.00109916
3.293e-06
7.42453e-06
0.00109527
2.93414e-06
5.6155e-06
0.00109716
2.88037e-06
4.35917e-06
0.0011048
3.31603e-06
1.49796e-06
0.00111879
1.88349e-06
3.53491e-06
0.00109892
4.08997e-06
0.000885761
3.23745e-06
5.67993e-06
0.00084523
2.8021e-06
1.08934e-05
0.00108528
4.33416e-06
1.05027e-05
0.00111301
1.88049e-06
1.09629e-05
0.00110165
3.2162e-06
9.66949e-06
0.00109834
2.7545e-06
7.80268e-06
0.00110083
2.67799e-06
6.46511e-06
0.00110902
3.22495e-06
3.31173e-06
0.00112356
1.61359e-06
4.57103e-06
0.00110137
4.04419e-06
0.00088798
3.06237e-06
7.37406e-06
0.000835787
2.67294e-06
1.29545e-05
0.00108271
4.34115e-06
1.30142e-05
0.00111448
1.79742e-06
1.37666e-05
0.0011038
3.1864e-06
1.25775e-05
0.00110124
2.64229e-06
1.05958e-05
0.0011045
2.52847e-06
9.05789e-06
0.0011134
3.1792e-06
5.47842e-06
0.00112867
1.40968e-06
5.75741e-06
0.00110456
4.03127e-06
0.000891416
2.92008e-06
9.66902e-06
0.000824037
2.63567e-06
1.57807e-05
0.0010794
4.39401e-06
1.63989e-05
0.00111532
1.80023e-06
1.74267e-05
0.00110563
3.19937e-06
1.6342e-05
0.00110399
2.605e-06
1.41798e-05
0.00110824
2.43651e-06
1.2297e-05
0.00111808
3.17745e-06
8.14695e-06
0.00113426
1.27558e-06
7.17347e-06
0.00110872
4.05192e-06
0.000896378
2.84217e-06
1.26743e-05
0.000809284
2.72823e-06
1.95795e-05
0.0010751
4.53142e-06
2.0879e-05
0.00111546
1.91342e-06
2.21903e-05
0.00110712
3.27596e-06
2.12063e-05
0.00110661
2.65621e-06
1.87903e-05
0.00111215
2.41128e-06
1.63984e-05
0.0011232
3.22592e-06
1.14734e-05
0.00114056
1.21635e-06
8.91506e-06
0.00111419
4.09666e-06
0.00090325
2.85874e-06
1.65462e-05
0.000790716
2.97287e-06
2.46352e-05
0.00106946
4.78636e-06
2.67465e-05
0.00111481
2.18005e-06
2.83695e-05
0.00110827
3.45893e-06
2.74754e-05
0.00110916
2.81935e-06
2.47257e-05
0.00111635
2.48209e-06
2.16388e-05
0.00112898
3.35204e-06
1.56879e-05
0.00114786
1.24367e-06
1.11334e-05
0.00112139
4.1687e-06
0.000912543
3.00382e-06
2.14328e-05
0.000767385
3.42812e-06
3.12976e-05
0.00106197
5.22785e-06
3.438e-05
0.00111325
2.6702e-06
3.6356e-05
0.00110906
3.7968e-06
3.5549e-05
0.00111167
3.13148e-06
3.2371e-05
0.00112096
2.68067e-06
2.83642e-05
0.00113565
3.58181e-06
2.10441e-05
0.00115653
1.39854e-06
1.39889e-05
0.00113087
4.3093e-06
0.000924947
3.28304e-06
2.74653e-05
0.000738227
4.21825e-06
3.9974e-05
0.00105188
5.964e-06
4.42436e-05
0.00111067
3.46297e-06
4.66292e-05
0.00110948
4.35678e-06
4.59297e-05
0.00111419
3.64998e-06
4.22335e-05
0.00112613
3.05749e-06
3.7025e-05
0.00114351
3.95566e-06
2.78941e-05
0.00116704
1.72844e-06
1.77265e-05
0.00114335
4.59234e-06
0.000941417
3.72597e-06
3.47422e-05
0.000702177
5.50768e-06
5.10925e-05
0.00103817
7.11123e-06
5.68724e-05
0.00110685
4.65126e-06
5.9767e-05
0.00110953
5.23001e-06
5.92432e-05
0.00111675
4.45542e-06
5.49732e-05
0.001132
3.68933e-06
4.82648e-05
0.0011529
4.53534e-06
3.68001e-05
0.00118001
2.28028e-06
2.26465e-05
0.00115979
5.06259e-06
0.000963229
4.42244e-06
4.32128e-05
0.00065831
7.48883e-06
6.50459e-05
0.00101952
8.85497e-06
7.28651e-05
0.00110147
6.34727e-06
7.64607e-05
0.00110915
6.53783e-06
7.62736e-05
0.00111935
5.65599e-06
7.14553e-05
0.00113868
4.67331e-06
6.29688e-05
0.00116422
5.41019e-06
4.85207e-05
0.00119619
3.12816e-06
2.91948e-05
0.00118149
5.78927e-06
0.000992171
5.47012e-06
5.26231e-05
0.000606116
1.03441e-05
8.20233e-05
0.000994262
1.13909e-05
9.28561e-05
0.0010939
8.71966e-06
9.75253e-05
0.00110819
8.43855e-06
9.79972e-05
0.00112187
7.39034e-06
9.28402e-05
0.00114617
6.13336e-06
8.23866e-05
0.00117783
6.68927e-06
6.41766e-05
0.00121655
4.37404e-06
3.80761e-05
0.00121029
6.87304e-06
0.00103083
6.99334e-06
6.24336e-05
0.000545808
1.41155e-05
0.000101941
0.000960362
1.49266e-05
0.000117404
0.00108305
1.1981e-05
0.000123879
0.0011063
1.11355e-05
0.000125626
0.00112403
9.8301e-06
0.000120691
0.00115424
8.21933e-06
0.000108337
0.00119396
8.49749e-06
8.55226e-05
0.00124223
6.13851e-06
5.04239e-05
0.00124873
8.42826e-06
0.00108309
9.13961e-06
7.17562e-05
0.000478261
1.85528e-05
0.000123936
0.000915797
1.95498e-05
0.000146672
0.001067
1.63149e-05
0.000156455
0.0011027
1.4858e-05
0.000160635
0.00112526
1.31718e-05
0.000157116
0.00116227
1.10829e-05
0.000143507
0.00121247
1.09414e-05
0.000115432
0.00127442
8.52877e-06
6.83398e-05
0.00130039
1.05701e-05
0.00115517
1.2041e-05
7.92765e-05
0.00040487
2.27556e-05
0.000146283
0.00085863
2.49861e-05
0.000180193
0.00104286
2.1846e-05
0.00019605
0.00109582
1.98189e-05
0.000204751