/*--------------------------------*- C++ -*----------------------------------*\
| =========                 |                                                 |
| \\      /  F ield         | OpenFOAM: The Open Source CFD Toolbox           |
|  \\    /   O peration     | Version:  4.1                                   |
|   \\  /    A nd           | Web:      www.OpenFOAM.org                      |
|    \\/     M anipulation  |                                                 |
\*---------------------------------------------------------------------------*/
FoamFile
{
    version     2.0;
    format      ascii;
    class       volVectorField;
    location    "1800";
    object      U;
}
// * * * * * * * * * * * * * * * * * * * * * * * * * * * * * * * * * * * * * //

dimensions      [0 1 -1 0 0 0 0];

internalField   nonuniform List<vector> 
12000
(
(0.0919854 -0.0096764 0.00967195)
(0.0965906 -0.00182197 0.0106308)
(0.0959945 -0.00135693 0.0110404)
(0.0956026 -0.000560079 0.0110631)
(0.095505 -0.00015105 0.0110929)
(0.0955052 0.000134555 0.0110929)
(0.095603 0.000544788 0.0110637)
(0.0959952 0.00134284 0.0110432)
(0.0965921 0.00180828 0.0106333)
(0.0919887 0.00968975 0.00967625)
(0.0861823 -0.00377344 0.00376298)
(0.0951725 -0.00254308 0.00514398)
(0.09375 -0.00196993 0.00559542)
(0.0926754 -0.00088449 0.00556947)
(0.0923395 -0.000277427 0.00560329)
(0.0923405 0.000236232 0.00560329)
(0.0926781 0.000845351 0.00556889)
(0.0937535 0.00193094 0.00559434)
(0.0951752 0.00250078 0.00515075)
(0.086185 0.00377386 0.00377511)
(0.0822529 0.00081532 -0.000833116)
(0.0932375 -0.00257089 0.00012702)
(0.0919561 -0.00167027 0.000445541)
(0.0907222 -0.000801856 0.000441427)
(0.0902395 -0.000299659 0.000477903)
(0.0902411 0.000227622 0.000478322)
(0.0907284 0.000733652 0.000441018)
(0.0919646 0.00160666 0.000442599)
(0.0932475 0.00251797 0.000125362)
(0.0823008 -0.000848449 -0.000840073)
(0.0795236 0.00273492 -0.00276123)
(0.0908358 -0.00252544 -0.00250973)
(0.0902322 -0.00120446 -0.0023342)
(0.0892214 -0.000679481 -0.00224992)
(0.0887042 -0.000299803 -0.00220115)
(0.088709 0.000191178 -0.00220045)
(0.0892339 0.000574176 -0.00225064)
(0.0902392 0.00110602 -0.0023415)
(0.0908424 0.00245073 -0.00252776)
(0.079625 -0.00278829 -0.00276715)
(0.0780988 0.00322302 -0.00326085)
(0.0890983 -0.00243299 -0.00359664)
(0.0892181 -0.000797944 -0.00356205)
(0.0884598 -0.00063258 -0.00335679)
(0.0879408 -0.000310666 -0.00328914)
(0.0879262 0.000149342 -0.00329945)
(0.0884723 0.000482022 -0.00336382)
(0.0892255 0.000666598 -0.00356758)
(0.0891537 0.00233909 -0.00356129)
(0.0782789 -0.0032995 -0.00326481)
(0.0773086 0.00312589 -0.00317899)
(0.0880475 -0.00230391 -0.003857)
(0.0887397 -0.000471324 -0.00402476)
(0.0881471 -0.000630897 -0.00371186)
(0.087582 -0.00032391 -0.00365143)
(0.0875867 9.07898e-05 -0.00365884)
(0.0881702 0.000419771 -0.00372577)
(0.0887717 0.000294733 -0.0040381)
(0.0880689 0.00216922 -0.00384338)
(0.0775934 -0.0032212 -0.00317176)
(0.0766182 0.0028085 -0.00288095)
(0.0872444 -0.00216542 -0.00371682)
(0.0884506 -0.000236709 -0.00410663)
(0.0879097 -0.000653513 -0.00373829)
(0.087354 -0.000333629 -0.00368138)
(0.0873571 1.04172e-05 -0.00369296)
(0.0879671 0.000363833 -0.00374744)
(0.0885324 -1.85511e-05 -0.00412802)
(0.0873038 0.00198107 -0.00374972)
(0.0770275 -0.00293761 -0.00287061)
(0.0758486 0.00243184 -0.00253077)
(0.0865517 -0.00204083 -0.00344734)
(0.0881771 -8.8828e-05 -0.00401345)
(0.0876589 -0.000699968 -0.00360095)
(0.0871317 -0.000342414 -0.00355603)
(0.0871634 -8.63821e-05 -0.00355926)
(0.0877748 0.000310012 -0.00359715)
(0.0883233 -0.000246009 -0.00401567)
(0.0866712 0.00179919 -0.00339267)
(0.076453 -0.00260829 -0.00251887)
(0.0750385 0.00205938 -0.00219446)
(0.0859304 -0.00193674 -0.0030941)
(0.0879227 -2.52861e-05 -0.00383504)
(0.087373 -0.000766782 -0.00339519)
(0.0869428 -0.000363326 -0.00334888)
(0.0869425 -0.000206548 -0.0033705)
(0.0875461 0.000252231 -0.00338628)
(0.08817 -0.000406601 -0.00380642)
(0.0860173 0.00160777 -0.00301944)
(0.0759063 -0.00230141 -0.00218303)
(0.0742122 0.00171787 -0.0019002)
(0.0853242 -0.00185122 -0.00274938)
(0.0876786 -3.59693e-05 -0.00361209)
(0.0870858 -0.000857104 -0.00316937)
(0.0867157 -0.000408234 -0.0031419)
(0.0867434 -0.000352309 -0.00316217)
(0.0873349 0.000180566 -0.00314658)
(0.0880356 -0.000548093 -0.00358245)
(0.0854283 0.00140264 -0.00270309)
(0.0754298 -0.00203478 -0.00188007)
(0.0733571 0.00140696 -0.00164968)
(0.0847568 -0.00179035 -0.00244658)
(0.0874378 -0.000105838 -0.00337086)
(0.0867967 -0.000982244 -0.00295286)
(0.0864978 -0.000485734 -0.00294794)
(0.0865648 -0.000523446 -0.00296575)
(0.0871332 8.21213e-05 -0.00292796)
(0.0879387 -0.000687651 -0.00337)
(0.0849127 0.00118437 -0.00244016)
(0.0750238 -0.00181688 -0.00161597)
(0.0724513 0.00111618 -0.00143685)
(0.0842044 -0.00176641 -0.00218604)
(0.0871651 -0.000232829 -0.00315354)
(0.0865073 -0.00114449 -0.00276104)
(0.0862912 -0.000606527 -0.00277058)
(0.086412 -0.000729797 -0.00279278)
(0.0869597 -5.2886e-05 -0.00273399)
(0.0878694 -0.000839769 -0.00318251)
(0.0844771 0.000955229 -0.00223074)
(0.074689 -0.00164072 -0.00138489)
(0.0714546 0.000832659 -0.00125484)
(0.0836328 -0.00179016 -0.0019903)
(0.0868697 -0.000412987 -0.00296971)
(0.0862193 -0.00134895 -0.00259302)
(0.086094 -0.000782574 -0.00261254)
(0.0862869 -0.000978168 -0.00263882)
(0.0868186 -0.000237254 -0.00255671)
(0.0878326 -0.00101845 -0.0030199)
(0.0841512 0.000717038 -0.00206085)
(0.0744159 -0.00149988 -0.00118229)
(0.0703313 0.000543759 -0.00109692)
(0.0830755 -0.00187419 -0.00182438)
(0.0865464 -0.000652054 -0.00280814)
(0.0859314 -0.00161202 -0.00243788)
(0.0859069 -0.00102906 -0.00247111)
(0.0861914 -0.0012818 -0.0024946)
(0.0867131 -0.000484733 -0.00239723)
(0.0878434 -0.00122927 -0.00286964)
(0.0839486 0.000463739 -0.00190006)
(0.0742255 -0.00139504 -0.00100451)
(0.0690358 0.000240598 -0.000961357)
(0.0825114 -0.00203288 -0.00167019)
(0.0861792 -0.00097282 -0.00265245)
(0.0856366 -0.00195372 -0.00229908)
(0.0857285 -0.00136601 -0.00233896)
(0.086126 -0.00166168 -0.00236214)
(0.0866563 -0.000810804 -0.00225592)
(0.0879184 -0.00148836 -0.00272264)
(0.0838733 0.000181139 -0.00175501)
(0.074146 -0.00132482 -0.000847711)
(0.067509 -9.00401e-05 -0.00084288)
(0.0819045 -0.00228544 -0.00153096)
(0.0857555 -0.0013988 -0.00250354)
(0.0853301 -0.00239806 -0.00217395)
(0.0855568 -0.0018194 -0.00221524)
(0.0860979 -0.00214087 -0.00223823)
(0.0866644 -0.00123786 -0.00212543)
(0.0880722 -0.00182007 -0.00258298)
(0.0839528 -0.000143737 -0.00162642)
(0.0742077 -0.00128866 -0.000709054)
(0.0656694 -0.000463114 -0.000734129)
(0.0812177 -0.00265502 -0.00140226)
(0.0852595 -0.00195973 -0.00235578)
(0.084992 -0.00297727 -0.00206051)
(0.0853839 -0.00242231 -0.00209488)
(0.0860994 -0.00275033 -0.00212278)
(0.0867402 -0.00179439 -0.00200539)
(0.0883267 -0.00224815 -0.00244576)
(0.0842057 -0.000528842 -0.00150774)
(0.0744447 -0.00129177 -0.000584188)
(0.0634116 -0.000892819 -0.000627751)
(0.0803938 -0.00317008 -0.00127376)
(0.0846639 -0.0026976 -0.00220392)
(0.0846106 -0.00373252 -0.00195238)
(0.0851987 -0.00321668 -0.00197398)
(0.0861341 -0.00353187 -0.00201041)
(0.0869023 -0.0025168 -0.00189157)
(0.0887028 -0.00280235 -0.00230959)
(0.0846656 -0.000997791 -0.00139463)
(0.0749011 -0.00134121 -0.000465779)
(0.0605991 -0.00139264 -0.000512619)
(0.0793373 -0.00386362 -0.00113859)
(0.0839352 -0.00366295 -0.00204089)
(0.0841608 -0.00471499 -0.00184225)
(0.0849837 -0.00425428 -0.00184836)
(0.0862007 -0.00453653 -0.00189305)
(0.0871657 -0.00345515 -0.00177582)
(0.0892319 -0.00352739 -0.00217214)
(0.0853712 -0.00158269 -0.00128728)
(0.0756316 -0.00144661 -0.000346133)
(0.0570611 -0.00197077 -0.000373174)
(0.07792 -0.0047719 -0.000979137)
(0.0830243 -0.00491801 -0.00185521)
(0.0836151 -0.00598912 -0.00172025)
(0.0847158 -0.00560059 -0.00171113)
(0.0862863 -0.00582934 -0.00176405)
(0.0875411 -0.00467331 -0.00165005)
(0.0899323 -0.00448222 -0.00202388)
(0.0863813 -0.00232576 -0.00117748)
(0.0767063 -0.00162103 -0.000215775)
(0.0525974 -0.00262161 -0.000191078)
(0.0759428 -0.00592688 -0.000771326)
(0.0818608 -0.00653767 -0.00162829)
(0.0829247 -0.00763444 -0.00157431)
(0.0843619 -0.00733633 -0.00155204)
(0.0863743 -0.0074961 -0.00161174)
(0.0880318 -0.006256 -0.00150638)
(0.0908363 -0.00574166 -0.00185203)
(0.0877732 -0.00328281 -0.00105095)
(0.0782185 -0.00188817 -6.64192e-05)
(0.046985 -0.00331515 5.7898e-05)
(0.0731105 -0.00733828 -0.000493856)
(0.0803323 -0.0085936 -0.00133984)
(0.0820277 -0.00974615 -0.00138601)
(0.0838703 -0.00955892 -0.00135893)
(0.0864266 -0.00964772 -0.00142306)
(0.0886378 -0.00831897 -0.0013329)
(0.091978 -0.00741176 -0.00164437)
(0.0896285 -0.0045343 -0.000894654)
(0.0802995 -0.00227955 0.000116583)
(0.040021 -0.00397318 0.000388509)
(0.0690464 -0.00896829 -0.000115181)
(0.0782391 -0.0111299 -0.000967524)
(0.0808234 -0.0124266 -0.00113172)
(0.0831594 -0.0123861 -0.00111293)
(0.0863727 -0.012427 -0.00117815)
(0.0893366 -0.0110212 -0.00111034)
(0.0933985 -0.00965016 -0.00138516)
(0.0920604 -0.00620068 -0.000692142)
(0.0831285 -0.0028487 0.000350117)
(0.0316018 -0.00443997 0.000786221)
(0.0632498 -0.0106749 0.000379497)
(0.075261 -0.0141059 -0.000476984)
(0.079142 -0.0157683 -0.000778352)
(0.0820955 -0.01596 -0.00079126)
(0.0860883 -0.0160185 -0.000854542)
(0.0900606 -0.0145839 -0.000812213)
(0.0951266 -0.0126948 -0.00105185)
(0.0952156 -0.00847161 -0.000417766)
(0.0869827 -0.00367455 0.000662001)
(0.021848 -0.00445075 0.00117393)
(0.0552147 -0.0121369 0.000954156)
(0.0708172 -0.017301 0.000158062)
(0.0766349 -0.0198009 -0.000277886)
(0.0804551 -0.0204434 -0.000358634)
(0.0853734 -0.0206605 -0.000422566)
(0.090676 -0.0193151 -0.000405438)
(0.0971753 -0.0169141 -0.000613003)
(0.0993021 -0.0116704 -4.09886e-05)
(0.092258 -0.00491418 0.00108889)
(0.011288 -0.0035796 0.00130308)
(0.0446258 -0.0127567 0.00144361)
(0.0640978 -0.0201758 0.000941048)
(0.0726817 -0.0243739 0.000454527)
(0.0778517 -0.0260098 0.000248959)
(0.083891 -0.0266814 0.000151127)
(0.090887 -0.0256605 0.000145109)
(0.0994448 -0.0228897 -2.66837e-05)
(0.104567 -0.0163442 0.000479792)
(0.0997544 -0.00679141 0.00167944)
(0.00106896 -0.00105595 0.0011661)
(0.0313843 -0.0116244 0.00154834)
(0.0537945 -0.0218028 0.00171239)
(0.0659986 -0.0289346 0.00148224)
(0.0734964 -0.032652 0.00116991)
(0.0811242 -0.0344377 0.000949452)
(0.09027 -0.0342194 0.000890058)
(0.101757 -0.0315433 0.000752161)
(0.111427 -0.0235819 0.00122696)
(0.110531 -0.0100332 0.00252412)
(-0.00319796 0.002195 0.00190154)
(0.0177082 -0.00782666 0.00200993)
(0.0394427 -0.0208806 0.00263664)
(0.0550233 -0.0324759 0.00279527)
(0.0659151 -0.0400939 0.0024743)
(0.0759351 -0.0443722 0.00207806)
(0.0877072 -0.0458992 0.00189476)
(0.103167 -0.0443042 0.00178737)
(0.119589 -0.0354184 0.00226952)
(0.128518 -0.0152133 0.00374905)
(-0.00607594 0.000236832 0.000762249)
(8.35958e-05 -0.00482037 0.00225337)
(0.0187621 -0.0167577 0.00416312)
(0.0372733 -0.0320754 0.00497262)
(0.0527365 -0.0456135 0.00468412)
(0.0668621 -0.0554655 0.00388396)
(0.0823617 -0.0615062 0.00333555)
(0.103326 -0.0634482 0.00310879)
(0.129202 -0.0564726 0.00372434)
(0.155934 -0.0285067 0.00552372)
(-0.0120635 -0.00427103 -0.00193718)
(-0.0143892 -0.0138373 -0.00208167)
(-0.00419856 -0.0226343 0.000785237)
(0.011508 -0.0333148 0.00445798)
(0.0286958 -0.0478238 0.00645372)
(0.0470533 -0.0638124 0.00655329)
(0.0666865 -0.0794761 0.00574676)
(0.0958223 -0.0896301 0.00506633)
(0.128891 -0.101355 0.00529391)
(0.217293 -0.0471327 0.0080272)
(0.0965874 -0.0106346 0.00181457)
(0.101403 -0.00143121 0.00142516)
(0.10094 -0.00123666 0.00151015)
(0.100659 -0.000464311 0.0014844)
(0.100614 -0.000115275 0.00149771)
(0.100614 0.000102637 0.00149771)
(0.10066 0.00045324 0.0014842)
(0.100943 0.00122841 0.0015095)
(0.10141 0.00142634 0.00142843)
(0.0965895 0.0107315 0.00182507)
(0.0951608 -0.0051528 0.00252519)
(0.108434 -0.00245388 0.00243788)
(0.106237 -0.00202336 0.00249681)
(0.105021 -0.000792045 0.00244256)
(0.104781 -0.000246515 0.00247547)
(0.104782 0.000209558 0.0024757)
(0.105027 0.000758382 0.00244178)
(0.106254 0.00198838 0.00249395)
(0.108458 0.00240375 0.00243674)
(0.0951381 0.00519324 0.00253448)
(0.0932114 -0.00014132 0.00254115)
(0.111557 -0.00286661 0.0028397)
(0.109208 -0.0017233 0.00287643)
(0.107586 -0.00067116 0.00280561)
(0.107231 -0.000283102 0.00284129)
(0.107236 0.000209302 0.00284234)
(0.107599 0.000599865 0.00280609)
(0.109223 0.00165481 0.00287313)
(0.111549 0.00280809 0.00283868)
(0.093253 0.000108812 0.00254679)
(0.0907863 0.00248786 0.00248136)
(0.111814 -0.00316791 0.00312885)
(0.109891 -0.00121437 0.00312089)
(0.108341 -0.000536108 0.0030751)
(0.107977 -0.000300804 0.0031218)
(0.107986 0.000186339 0.00311214)
(0.108366 0.000428583 0.00307186)
(0.109936 0.00111832 0.00311427)
(0.111845 0.00311302 0.00314831)
(0.0908762 -0.0025832 0.00248462)
(0.0890158 0.00356399 0.00237)
(0.111004 -0.00341505 0.00336214)
(0.109755 -0.000804166 0.00321852)
(0.108365 -0.000530272 0.0032228)
(0.107988 -0.000330816 0.00326149)
(0.108032 0.000165526 0.00326832)
(0.10842 0.000376676 0.00322158)
(0.109843 0.000667866 0.00322352)
(0.110995 0.00330054 0.00333782)
(0.0892261 -0.00365208 0.00238007)
(0.0879185 0.00380997 0.00222088)
(0.110054 -0.00351374 0.00344664)
(0.109636 -0.000487878 0.00319678)
(0.10835 -0.00059282 0.00322453)
(0.107968 -0.000352206 0.00327243)
(0.108005 0.000127635 0.00328077)
(0.108433 0.000385502 0.00323699)
(0.109751 0.000285122 0.00321827)
(0.110194 0.00337628 0.00342274)
(0.0881892 -0.00394107 0.00222249)
(0.0870494 0.00365051 0.00205718)
(0.109199 -0.00351333 0.00341869)
(0.109556 -0.000241368 0.00311875)
(0.108394 -0.000674035 0.0031897)
(0.107956 -0.000353152 0.0032236)
(0.10801 5.432e-05 0.00323739)
(0.108493 0.000408903 0.0032114)
(0.109698 -1.51298e-05 0.00314615)
(0.109382 0.00338571 0.00345534)
(0.0874867 -0.00385393 0.00205499)
(0.0862642 0.00335395 0.00189293)
(0.10836 -0.00347643 0.00334781)
(0.109454 -8.39393e-05 0.00303293)
(0.108398 -0.000772402 0.00314593)
(0.107924 -0.000345818 0.00316002)
(0.107974 -5.00547e-05 0.00314756)
(0.10851 0.00041967 0.00315839)
(0.109633 -0.000249506 0.00305983)
(0.10853 0.00323423 0.00333619)
(0.0869338 -0.00351166 0.00190667)
(0.0855206 0.00296425 0.00173323)
(0.107583 -0.00337721 0.00321067)
(0.10931 -9.74385e-06 0.00292978)
(0.108384 -0.000888952 0.00308983)
(0.107844 -0.000345551 0.00304006)
(0.107956 -0.000181562 0.00304385)
(0.108537 0.00042212 0.00309596)
(0.109527 -0.000453539 0.00293711)
(0.107972 0.00303182 0.00317462)
(0.0863834 -0.00315693 0.00175813)
(0.0847558 0.00257454 0.00157734)
(0.106974 -0.00327381 0.00305746)
(0.10917 1.25147e-05 0.00280949)
(0.108366 -0.00102303 0.00301886)
(0.107822 -0.000358758 0.00290876)
(0.10795 -0.000333165 0.00293445)
(0.108567 0.000408634 0.00301863)
(0.10947 -0.000633126 0.00279745)
(0.107582 0.00286469 0.00305972)
(0.0859274 -0.00287374 0.00160674)
(0.0839808 0.00221684 0.0014316)
(0.106461 -0.00320371 0.0029176)
(0.109034 -1.96522e-05 0.00267184)
(0.108358 -0.00117238 0.00293559)
(0.107822 -0.000394865 0.00279351)
(0.107969 -0.000511876 0.0028165)
(0.108631 0.000372594 0.00293384)
(0.109462 -0.000800191 0.00266219)
(0.107309 0.00270598 0.00296286)
(0.08558 -0.0026541 0.00146285)
(0.0831538 0.0018866 0.00129702)
(0.106008 -0.00315164 0.00276753)
(0.108916 -9.79396e-05 0.00254019)
(0.108343 -0.00134365 0.00285072)
(0.10783 -0.000464778 0.00267933)
(0.108 -0.000718474 0.00269924)
(0.108707 0.000303644 0.00284847)
(0.109502 -0.000964127 0.00253263)
(0.107099 0.00253843 0.00286849)
(0.0853521 -0.00249536 0.00133011)
(0.0822203 0.00160085 0.00116856)
(0.105619 -0.00315242 0.0026388)
(0.108788 -0.000231008 0.00242761)
(0.108308 -0.00155034 0.00276421)
(0.107839 -0.000581649 0.00256869)
(0.108036 -0.000959535 0.00258313)
(0.108795 0.000190903 0.00275602)
(0.10958 -0.00113254 0.00241216)
(0.106916 0.00234134 0.00276483)
(0.0852591 -0.00237836 0.00121354)
(0.0811978 0.00131931 0.00105039)
(0.105186 -0.00320764 0.00252501)
(0.108633 -0.00043676 0.00232322)
(0.10825 -0.00180388 0.00267363)
(0.107845 -0.000761333 0.00246524)
(0.108078 -0.00124665 0.00246778)
(0.108906 2.05783e-05 0.00266245)
(0.109693 -0.00132329 0.00229935)
(0.106771 0.00209814 0.00264216)
(0.0853147 -0.00227497 0.00111699)
(0.080039 0.00101797 0.000945522)
(0.104696 -0.0033005 0.00239804)
(0.108446 -0.000720941 0.00222755)
(0.10817 -0.00211707 0.00258502)
(0.107845 -0.00102103 0.00237163)
(0.108133 -0.00159359 0.00236076)
(0.109046 -0.000222505 0.00257578)
(0.109847 -0.00155282 0.00219348)
(0.106697 0.00181608 0.00251604)
(0.0855315 -0.00219704 0.00103787)
(0.0786789 0.000693567 0.000854781)
(0.104145 -0.00345393 0.00226872)
(0.108215 -0.00109982 0.00214836)
(0.108061 -0.00250964 0.00249953)
(0.10784 -0.00138262 0.00229028)
(0.108203 -0.00201836 0.00226166)
(0.109218 -0.000556917 0.00249121)
(0.110061 -0.00183622 0.00209994)
(0.106725 0.00148887 0.00239473)
(0.0859072 -0.00214511 0.000976499)
(0.0770528 0.000335204 0.000782715)
(0.103499 -0.00369677 0.00215167)
(0.107923 -0.00159843 0.00208482)
(0.107925 -0.00300928 0.00242478)
(0.107828 -0.00187341 0.00222344)
(0.108299 -0.00254747 0.00217597)
(0.109442 -0.00100551 0.00241487)
(0.11035 -0.00219542 0.00202056)
(0.106896 0.0010992 0.00228001)
(0.0864637 -0.00211988 0.00093598)
(0.0750817 -7.37441e-05 0.000737262)
(0.102715 -0.00404968 0.00205049)
(0.10756 -0.00224792 0.0020413)
(0.107753 -0.0036488 0.00236662)
(0.107814 -0.00252859 0.0021743)
(0.108427 -0.00321249 0.00211048)
(0.109731 -0.00160181 0.00235359)
(0.110741 -0.00265849 0.00195858)
(0.107251 0.000628747 0.00217691)
(0.0872461 -0.00212816 0.000919813)
(0.0726597 -0.000542015 0.000727631)
(0.101749 -0.00454861 0.0019807)
(0.10711 -0.00309156 0.00202747)
(0.107541 -0.0044715 0.0023326)
(0.1078 -0.00339228 0.00214888)
(0.108599 -0.00405494 0.00206629)
(0.110104 -0.00238612 0.00230859)
(0.111264 -0.00325994 0.00191877)
(0.107846 5.71082e-05 0.0020975)
(0.0883141 -0.00218149 0.000932468)
(0.0696855 -0.00108438 0.000770302)
(0.100508 -0.00523055 0.00196024)
(0.106555 -0.004184 0.00205303)
(0.107282 -0.005531 0.00233032)
(0.107791 -0.00452006 0.0021571)
(0.108831 -0.00513075 0.00205213)
(0.110587 -0.00341121 0.00228321)
(0.111971 -0.0040449 0.00190906)
(0.108743 -0.000644671 0.0020546)
(0.089755 -0.00229089 0.000981622)
(0.0660384 -0.00171111 0.000889378)
(0.0988826 -0.00611807 0.00200272)
(0.105867 -0.00558432 0.00212868)
(0.106972 -0.00689297 0.00237274)
(0.107787 -0.00598097 0.00221137)
(0.109137 -0.00651347 0.00208103)
(0.111221 -0.00475062 0.00229086)
(0.112923 -0.00507649 0.00193967)
(0.110016 -0.0015304 0.00205248)
(0.09169 -0.0024678 0.00108)
(0.0615728 -0.00240702 0.00111204)
(0.0967271 -0.00724953 0.00214585)
(0.105004 -0.00735728 0.00227081)
(0.106598 -0.00863928 0.00247776)
(0.107783 -0.0078615 0.00232761)
(0.109528 -0.00829843 0.00216735)
(0.112042 -0.00650493 0.00234863)
(0.114199 -0.00644969 0.0020235)
(0.111792 -0.0026705 0.00210398)
(0.0942719 -0.0027407 0.00124466)
(0.05618 -0.00315021 0.00146196)
(0.0938088 -0.00861901 0.00241488)
(0.103886 -0.00956498 0.00251713)
(0.106139 -0.010867 0.00266843)
(0.107762 -0.0102675 0.00252492)
(0.110009 -0.0106125 0.00233272)
(0.113087 -0.00881102 0.00247604)
(0.115891 -0.00830162 0.00217778)
(0.114234 -0.00416889 0.00223251)
(0.0977221 -0.00315412 0.00150139)
(0.0496944 -0.00386501 0.00194185)
(0.0898823 -0.010179 0.00283084)
(0.102355 -0.012238 0.00290018)
(0.10554 -0.0136828 0.00297812)
(0.107688 -0.0133307 0.00283303)
(0.110562 -0.0136266 0.00260762)
(0.114389 -0.0118643 0.00270231)
(0.118114 -0.0108436 0.002431)
(0.117572 -0.00618763 0.00246884)
(0.102371 -0.00378675 0.00188542)
(0.0420268 -0.00440422 0.00248775)
(0.0845594 -0.0118103 0.00338747)
(0.100128 -0.0153296 0.00345479)
(0.104683 -0.0171921 0.00346475)
(0.107486 -0.0172172 0.00329911)
(0.111132 -0.01757 0.00303318)
(0.115954 -0.0159463 0.00306505)
(0.120992 -0.0144089 0.00282313)
(0.12213 -0.00900837 0.00286084)
(0.108703 -0.00477991 0.00244912)
(0.0331991 -0.00450756 0.00290647)
(0.077408 -0.0132166 0.0039992)
(0.0967372 -0.018634 0.00420356)
(0.103306 -0.0214551 0.00419921)
(0.106993 -0.0221385 0.00399096)
(0.111572 -0.0227566 0.00366484)
(0.117708 -0.0214747 0.00361738)
(0.124615 -0.0195273 0.00340305)
(0.128343 -0.0131212 0.0034826)
(0.117649 -0.00630199 0.0032673)
(0.0234881 -0.00384542 0.00287958)
(0.0678827 -0.0138978 0.00440521)
(0.0913857 -0.0216961 0.00512745)
(0.100915 -0.0263758 0.00528719)
(0.105959 -0.028308 0.00500857)
(0.111664 -0.0295923 0.00456766)
(0.119493 -0.0290465 0.00441455)
(0.129059 -0.0270723 0.00423163)
(0.136853 -0.0195097 0.00441801)
(0.130433 -0.00903694 0.00446344)
(0.0144305 -0.00198649 0.0028393)
(0.0562467 -0.0131841 0.00474729)
(0.0832356 -0.0238801 0.00622927)
(0.0966184 -0.0316521 0.00677578)
(0.103801 -0.0358989 0.00644991)
(0.110895 -0.0385875 0.0057982)
(0.120724 -0.0394859 0.00546234)
(0.133911 -0.0384275 0.005308)
(0.147912 -0.0301368 0.00572283)
(0.151277 -0.013485 0.00617052)
(0.00852544 -0.000512261 0.00290152)
(0.0430093 -0.0109256 0.00543146)
(0.0715099 -0.0240201 0.00764255)
(0.0892527 -0.0360015 0.00870881)
(0.0998469 -0.0444109 0.00836674)
(0.108958 -0.0501826 0.00740517)
(0.121024 -0.0538624 0.00676363)
(0.138963 -0.055629 0.00658521)
(0.162067 -0.048975 0.00748957)
(0.182811 -0.0254412 0.00862836)
(0.00550478 -0.00256804 0.00021207)
(0.0304562 -0.0109879 0.00445177)
(0.0571797 -0.0242094 0.00770954)
(0.0775693 -0.0386303 0.00950743)
(0.0917825 -0.0516611 0.009541)
(0.10381 -0.0628659 0.00849155)
(0.11735 -0.0730344 0.00749103)
(0.141411 -0.0806252 0.00719098)
(0.170648 -0.0896979 0.00865471)
(0.249295 -0.0418802 0.0117153)
(0.095992 -0.0110441 0.00134916)
(0.10094 -0.00151578 0.00123046)
(0.10065 -0.00118007 0.00117427)
(0.100408 -0.000460422 0.00118526)
(0.100367 -0.000113893 0.00119104)
(0.100367 0.000102541 0.00119096)
(0.10041 0.000450881 0.00118497)
(0.100654 0.00117345 0.0011738)
(0.100942 0.0015149 0.00123185)
(0.0959929 0.0111686 0.00135328)
(0.0937389 -0.00560372 0.00195017)
(0.106237 -0.00251186 0.00200608)
(0.103728 -0.00192385 0.00190742)
(0.102543 -0.000781684 0.00194232)
(0.102301 -0.000238665 0.00195244)
(0.102304 0.000204665 0.00195236)
(0.102551 0.000751884 0.00194161)
(0.103748 0.00188898 0.00190568)
(0.106276 0.00245307 0.00200763)
(0.0937117 0.00563626 0.00195506)
(0.0919284 -0.000458441 0.00163634)
(0.10921 -0.00290243 0.00169273)
(0.106062 -0.00162314 0.00159299)
(0.104425 -0.000646742 0.00163149)
(0.104074 -0.000270602 0.00164134)
(0.10408 0.000198228 0.00164138)
(0.104438 0.00057737 0.00163126)
(0.106077 0.00155253 0.00159099)
(0.109194 0.00285559 0.00169006)
(0.0919863 0.000417237 0.00164247)
(0.0901783 0.00231448 0.00115294)
(0.109896 -0.00316021 0.00116721)
(0.107108 -0.00110976 0.00106338)
(0.105508 -0.000495706 0.0010947)
(0.105157 -0.000290505 0.0011068)
(0.105165 0.000176318 0.00110623)
(0.10553 0.000389521 0.00109486)
(0.107129 0.00101298 0.00106319)
(0.109877 0.00309304 0.00116568)
(0.09031 -0.00238631 0.00115854)
(0.0891316 0.00353311 0.0007231)
(0.10976 -0.00326552 0.000736487)
(0.10762 -0.000681098 0.000615813)
(0.106164 -0.00049129 0.000645035)
(0.10581 -0.000326511 0.000662672)
(0.105818 0.000163678 0.000660082)
(0.106196 0.000341917 0.000644153)
(0.107653 0.000545594 0.000612312)
(0.109735 0.00317464 0.000739946)
(0.0893674 -0.00362693 0.000735007)
(0.0885931 0.00399613 0.000368836)
(0.109663 -0.00327707 0.000390705)
(0.108147 -0.000319518 0.000228074)
(0.106781 -0.000562476 0.000261544)
(0.106373 -0.00034815 0.000277369)
(0.106389 0.000127485 0.000276026)
(0.106828 0.000360542 0.000258353)
(0.108202 0.000134045 0.000224739)
(0.109616 0.00311595 0.000390516)
(0.0889779 -0.00409328 0.000384698)
(0.0882572 0.00405982 0.000103481)
(0.109569 -0.00322741 0.000109346)
(0.108708 -2.08086e-05 -0.000109093)
(0.107386 -0.000652151 -6.6452e-05)
(0.106926 -0.000342841 -5.48475e-05)
(0.106952 4.86209e-05 -5.73433e-05)
(0.107462 0.000386668 -6.67996e-05)
(0.108792 -0.000225974 -0.000104366)
(0.10958 0.00300294 0.000119948)
(0.088775 -0.00419763 0.00010606)
(0.0879058 0.00393262 -9.09618e-05)
(0.109457 -0.00315518 -9.20549e-05)
(0.109213 0.000201495 -0.000375077)
(0.107924 -0.0007563 -0.00031788)
(0.107436 -0.00032493 -0.000316996)
(0.107474 -6.82286e-05 -0.000319054)
(0.108037 0.000409989 -0.000315374)
(0.109342 -0.000537792 -0.000374907)
(0.10955 0.00290065 -7.96134e-05)
(0.0886012 -0.00411387 -7.62736e-05)
(0.0875279 0.00370819 -0.000221327)
(0.10933 -0.0030834 -0.000224958)
(0.109651 0.000350127 -0.000573277)
(0.108383 -0.0008813 -0.000498766)
(0.107888 -0.000309271 -0.000506119)
(0.107938 -0.000211234 -0.000515918)
(0.10854 0.000424962 -0.000495829)
(0.109837 -0.000800645 -0.000583509)
(0.109477 0.00276151 -0.000235276)
(0.0884984 -0.00392581 -0.000178238)
(0.0871312 0.0034432 -0.000293121)
(0.109213 -0.00301441 -0.000323616)
(0.110044 0.000436408 -0.000726912)
(0.108787 -0.00102247 -0.000626662)
(0.108295 -0.000304989 -0.000650575)
(0.108363 -0.000377259 -0.000661265)
(0.108998 0.000423561 -0.000622968)
(0.110301 -0.00103174 -0.000744434)
(0.109472 0.00259771 -0.000351115)
(0.088415 -0.0037273 -0.000243681)
(0.0867022 0.0031725 -0.000328868)
(0.109097 -0.00295632 -0.000390456)
(0.1104 0.000464786 -0.00084821)
(0.109152 -0.00117719 -0.000718418)
(0.108675 -0.000322282 -0.000759978)
(0.108766 -0.000568981 -0.000772162)
(0.109434 0.000397645 -0.000714994)
(0.110752 -0.00124175 -0.000869587)
(0.109525 0.00242681 -0.000432615)
(0.0883846 -0.00354451 -0.000289688)
(0.0862115 0.00290769 -0.000341337)
(0.10897 -0.00292063 -0.000434054)
(0.110715 0.000436359 -0.000944205)
(0.109485 -0.00135258 -0.000782017)
(0.109033 -0.000371866 -0.000842131)
(0.109155 -0.000788139 -0.000855397)
(0.109857 0.000338165 -0.000777228)
(0.111198 -0.00144188 -0.000965107)
(0.109629 0.00223362 -0.000483024)
(0.0884118 -0.00338537 -0.000323567)
(0.0856376 0.00263885 -0.000344222)
(0.108819 -0.00291223 -0.000459839)
(0.110987 0.000344053 -0.00101114)
(0.109784 -0.0015593 -0.000822236)
(0.10937 -0.00046655 -0.000901498)
(0.109533 -0.00104168 -0.000915174)
(0.110274 0.000236492 -0.000816125)
(0.111649 -0.00164192 -0.00103492)
(0.109788 0.00201872 -0.000509262)
(0.0884976 -0.00325287 -0.000348309)
(0.0849439 0.00236355 -0.000341984)
(0.108639 -0.00294394 -0.000463511)
(0.111212 0.000179695 -0.00105193)
(0.110049 -0.00180821 -0.000844172)
(0.109686 -0.000621238 -0.000941515)
(0.109902 -0.00133844 -0.000956735)
(0.110691 8.12878e-05 -0.000838705)
(0.112114 -0.00185682 -0.00108565)
(0.110003 0.0017847 -0.000519107)
(0.0886656 -0.00314171 -0.000360769)
(0.0840971 0.00206964 -0.000330056)
(0.108413 -0.00303218 -0.000449755)
(0.111387 -6.5643e-05 -0.00107247)
(0.11028 -0.00211269 -0.000852157)
(0.109984 -0.000852841 -0.000964977)
(0.110268 -0.00168994 -0.000983976)
(0.111118 -0.000142602 -0.000847972)
(0.112605 -0.00210062 -0.00111964)
(0.110281 0.001523 -0.000517709)
(0.0889423 -0.00304954 -0.000362533)
(0.0830513 0.00174362 -0.000308509)
(0.108123 -0.00318819 -0.000421584)
(0.111504 -0.00040734 -0.00107213)
(0.110479 -0.00249085 -0.000847348)
(0.110265 -0.00118204 -0.000972587)
(0.110636 -0.00211403 -0.000997591)
(0.111568 -0.000453131 -0.000845377)
(0.113136 -0.00238924 -0.00113794)
(0.110641 0.00122053 -0.000507079)
(0.0893557 -0.00297757 -0.000352998)
(0.0817458 0.00137581 -0.000275423)
(0.107749 -0.00342702 -0.000377492)
(0.111555 -0.000867338 -0.00104842)
(0.110645 -0.00296602 -0.000829849)
(0.110533 -0.00163493 -0.000963602)
(0.111017 -0.00263362 -0.000998362)
(0.112055 -0.000873315 -0.000832851)
(0.113727 -0.00274389 -0.00114201)
(0.111117 0.000866192 -0.000490603)
(0.0899379 -0.00292987 -0.000329)
(0.0801016 0.000955082 -0.000223312)
(0.107262 -0.00377183 -0.00031397)
(0.111532 -0.00147454 -0.000999501)
(0.110777 -0.00356848 -0.000796591)
(0.110791 -0.00224391 -0.000936214)
(0.11142 -0.0032777 -0.000984061)
(0.112596 -0.00143284 -0.000808424)
(0.114401 -0.00318991 -0.00113141)
(0.111738 0.000438542 -0.000468384)
(0.0907366 -0.00291308 -0.00028894)
(0.0780335 0.000468576 -0.000144079)
(0.106621 -0.00424755 -0.000223082)
(0.111424 -0.002267 -0.000918313)
(0.110875 -0.00433638 -0.000743159)
(0.111043 -0.00304979 -0.000886809)
(0.111858 -0.00408502 -0.000951225)
(0.113214 -0.00216885 -0.000769312)
(0.115191 -0.00375963 -0.00110267)
(0.112563 -8.1659e-05 -0.000438245)
(0.0918042 -0.00293609 -0.000232904)
(0.0754384 -9.36151e-05 -2.43653e-05)
(0.105765 -0.00488186 -9.16229e-05)
(0.111222 -0.00329065 -0.000794914)
(0.110936 -0.00531644 -0.000661454)
(0.111294 -0.00410266 -0.000809225)
(0.112344 -0.00510591 -0.000894607)
(0.113934 -0.00313098 -0.000711289)
(0.116141 -0.00449343 -0.00105169)
(0.113646 -0.000726366 -0.00039248)
(0.0932284 -0.00301064 -0.000158098)
(0.0722107 -0.000737951 0.000157922)
(0.104607 -0.00570113 9.70484e-05)
(0.110909 -0.00459702 -0.000615813)
(0.110961 -0.00656437 -0.00054039)
(0.111548 -0.00546328 -0.000694107)
(0.112893 -0.00640482 -0.000805257)
(0.11479 -0.00438616 -0.000627835)
(0.117302 -0.00545177 -0.000973138)
(0.115071 -0.0015436 -0.000325603)
(0.0951173 -0.00314994 -5.52667e-05)
(0.0682437 -0.00145528 0.000427023)
(0.103033 -0.00672355 0.000366401)
(0.11046 -0.00623942 -0.00036291)
(0.110945 -0.00814598 -0.000363309)
(0.111806 -0.00720512 -0.000527596)
(0.113519 -0.00806521 -0.000670695)
(0.115818 -0.00602378 -0.000507907)
(0.118745 -0.00671975 -0.000857771)
(0.116952 -0.00259553 -0.000229464)
(0.09762 -0.00337928 8.88588e-05)
(0.0634618 -0.00221549 0.000811019)
(0.100889 -0.00794631 0.000745135)
(0.109834 -0.00826288 -1.13793e-05)
(0.110881 -0.0101385 -0.000107706)
(0.112064 -0.00941535 -0.000290614)
(0.114228 -0.010196 -0.000473688)
(0.117058 -0.00816658 -0.00033642)
(0.120554 -0.00842058 -0.000691136)
(0.119444 -0.00397788 -9.10132e-05)
(0.100953 -0.00373647 0.000291218)
(0.0578256 -0.00295205 0.00133017)
(0.0979963 -0.00934769 0.00126354)
(0.108951 -0.0106895 0.000471446)
(0.110747 -0.0126238 0.000259356)
(0.112303 -0.0121965 4.2462e-05)
(0.115012 -0.0129391 -0.000191522)
(0.118542 -0.0109863 -9.40533e-05)