/*--------------------------------*- C++ -*----------------------------------*\
| =========                 |                                                 |
| \\      /  F ield         | OpenFOAM: The Open Source CFD Toolbox           |
|  \\    /   O peration     | Version:  4.1                                   |
|   \\  /    A nd           | Web:      www.OpenFOAM.org                      |
|    \\/     M anipulation  |                                                 |
\*---------------------------------------------------------------------------*/
FoamFile
{
    version     2.0;
    format      ascii;
    class       volScalarField;
    location    "700";
    object      epsilon;
}
// * * * * * * * * * * * * * * * * * * * * * * * * * * * * * * * * * * * * * //

dimensions      [0 2 -3 0 0 0 0];

internalField   nonuniform List<scalar> 
12000
(
0.319576
0.311201
0.310007
0.309709
0.309636
0.309637
0.309711
0.31
0.311109
0.31948
0.0652523
0.0639805
0.0630614
0.0626257
0.0624932
0.0624939
0.0626282
0.0630715
0.0639874
0.0652781
0.0176804
0.0178582
0.0174845
0.0172561
0.017172
0.0171726
0.0172578
0.017491
0.0178589
0.0176879
0.00616795
0.00640278
0.00628947
0.00618365
0.00613837
0.00613851
0.00618383
0.00629107
0.00640274
0.00617378
0.00264161
0.00278779
0.00276434
0.00271457
0.00268955
0.0026899
0.00271612
0.00276564
0.00278835
0.00264538
0.00132677
0.00141462
0.00141752
0.00139335
0.00137867
0.00137908
0.00139522
0.00141908
0.00141419
0.00132983
0.000752106
0.000809262
0.000818184
0.000805654
0.000796511
0.000796883
0.00080671
0.000819597
0.000809496
0.000755212
0.000467054
0.00050729
0.000516713
0.00050904
0.000503026
0.000503276
0.000509995
0.000517799
0.000508451
0.000470765
0.000311113
0.000340411
0.000349278
0.000344515
0.000340295
0.000340564
0.000345205
0.00035049
0.00034069
0.000314369
0.000218865
0.00024075
0.000248665
0.000245223
0.000242209
0.000242566
0.000246733
0.000249338
0.000243989
0.000222746
0.000160832
0.000178149
0.000184858
0.000182716
0.000180476
0.000180631
0.000183178
0.000185699
0.000178293
0.000164384
0.000122594
0.000136884
0.000142503
0.000140989
0.000139348
0.00013958
0.000141451
0.000143434
0.000136447
0.000125802
9.62857e-05
0.000108509
0.000113245
0.000112239
0.00011105
0.000111261
0.000112698
0.000114422
0.000108621
9.95744e-05
7.74801e-05
8.81657e-05
9.23338e-05
9.16293e-05
9.07703e-05
9.10001e-05
9.21115e-05
9.36296e-05
8.88834e-05
8.1027e-05
6.35785e-05
7.30473e-05
7.68624e-05
7.63638e-05
7.57301e-05
7.59724e-05
7.69071e-05
7.82269e-05
7.43045e-05
6.74652e-05
5.29982e-05
6.15151e-05
6.50168e-05
6.47553e-05
6.42973e-05
6.45863e-05
6.53953e-05
6.65406e-05
6.31554e-05
5.72494e-05
4.47259e-05
5.25124e-05
5.5788e-05
5.57177e-05
5.54168e-05
5.57245e-05
5.64625e-05
5.75162e-05
5.45315e-05
4.94198e-05
3.80899e-05
4.53472e-05
4.84609e-05
4.85562e-05
4.84223e-05
4.87874e-05
4.94757e-05
5.04208e-05
4.77253e-05
4.32811e-05
3.26287e-05
3.95256e-05
4.25739e-05
4.27958e-05
4.27765e-05
4.31566e-05
4.3847e-05
4.47887e-05
4.23898e-05
3.84748e-05
2.80076e-05
3.46892e-05
3.77493e-05
3.80847e-05
3.82121e-05
3.86788e-05
3.93512e-05
4.02329e-05
3.80835e-05
3.46059e-05
2.39783e-05
3.05453e-05
3.37097e-05
3.41723e-05
3.43803e-05
3.48681e-05
3.56031e-05
3.65658e-05
3.47335e-05
3.15926e-05
2.03322e-05
2.68839e-05
3.02293e-05
3.08889e-05
3.1239e-05
3.1857e-05
3.25803e-05
3.35294e-05
3.19709e-05
2.91219e-05
1.69069e-05
2.34747e-05
2.71917e-05
2.80307e-05
2.84439e-05
2.91116e-05
2.99768e-05
3.11087e-05
2.992e-05
2.72962e-05
1.35261e-05
2.01519e-05
2.43507e-05
2.55644e-05
2.61813e-05
2.70047e-05
2.78536e-05
2.90333e-05
2.81704e-05
2.57944e-05
1.00708e-05
1.66453e-05
2.15489e-05
2.32007e-05
2.39286e-05
2.4847e-05
2.59717e-05
2.74543e-05
2.70135e-05
2.48966e-05
6.30665e-06
1.2868e-05
1.86263e-05
2.10374e-05
2.21592e-05
2.32388e-05
2.43131e-05
2.59884e-05
2.59422e-05
2.41959e-05
2.62091e-06
8.56126e-06
1.52444e-05
1.84327e-05
1.99457e-05
2.13152e-05
2.28291e-05
2.49828e-05
2.53988e-05
2.43157e-05
1.36316e-06
4.57434e-06
1.10797e-05
1.56992e-05
1.80709e-05
1.96643e-05
2.10891e-05
2.36707e-05
2.49684e-05
2.44747e-05
2.01531e-06
3.46503e-06
5.82244e-06
9.75853e-06
1.45801e-05
1.75364e-05
1.94168e-05
2.26251e-05
2.48136e-05
2.56895e-05
4.16007e-06
6.08572e-06
6.36228e-06
7.08605e-06
8.11078e-06
1.17148e-05
1.59993e-05
2.00147e-05
2.42349e-05
2.72528e-05
0.311199
0.685457
0.68515
0.684839
0.684749
0.684748
0.684838
0.685151
0.685766
0.311313
0.0639773
0.0988684
0.0854503
0.0843588
0.0842182
0.0842117
0.0843563
0.0853558
0.0990176
0.0642299
0.0178553
0.0396764
0.0347899
0.0341831
0.0340976
0.0340729
0.0340936
0.0346458
0.0398022
0.0180077
0.00640051
0.0169514
0.0161518
0.0158693
0.015784
0.0157282
0.0157082
0.0157001
0.0173629
0.00650576
0.00278594
0.00713756
0.00732367
0.00720143
0.00714188
0.00712073
0.00709743
0.0070079
0.00752692
0.00284345
0.00141304
0.00302064
0.00325239
0.00319224
0.00316832
0.00313345
0.00316206
0.00318609
0.00329486
0.00144103
0.000807889
0.00134741
0.00147154
0.00145139
0.00143273
0.0014393
0.00143164
0.0014462
0.00149833
0.000822674
0.00050601
0.000639464
0.000700265
0.000684075
0.000682432
0.000674469
0.000681075
0.000691323
0.00071671
0.000515509
0.000339263
0.000325237
0.000343883
0.000341287
0.000337118
0.000336276
0.000337458
0.000342044
0.00036535
0.000344598
0.000239608
0.000181193
0.000180223
0.000179337
0.000178767
0.00017748
0.000176553
0.000177683
0.000201519
0.000246902
0.000177004
0.0001119
0.000101329
0.000101089
0.000100581
0.000100838
9.96301e-05
0.000101363
0.00012238
0.000180309
0.000135729
7.51644e-05
6.09787e-05
6.16588e-05
6.11585e-05
6.16051e-05
6.10896e-05
6.20935e-05
8.14015e-05
0.00013865
0.000107314
5.45258e-05
3.87519e-05
3.99003e-05
3.9266e-05
3.9932e-05
4.03792e-05
4.05733e-05
5.69065e-05
0.000110679
8.69073e-05
4.18948e-05
2.59923e-05
2.72887e-05
2.65317e-05
2.73135e-05
2.80387e-05
2.8018e-05
4.1253e-05
9.07295e-05
7.17056e-05
3.3643e-05
1.84522e-05
1.94989e-05
1.86554e-05
1.97149e-05
2.02871e-05
2.01509e-05
3.10463e-05
7.58757e-05
6.00771e-05
2.78722e-05
1.39382e-05
1.44904e-05
1.36404e-05
1.46705e-05
1.52609e-05
1.50231e-05
2.41068e-05
6.45148e-05
5.09717e-05
2.37756e-05
1.10917e-05
1.1117e-05
1.03893e-05
1.12397e-05
1.18769e-05
1.15147e-05
1.92955e-05
5.55968e-05
4.36822e-05
2.07794e-05
9.23665e-06
8.84106e-06
8.25709e-06
8.85177e-06
9.59161e-06
9.13858e-06
1.58478e-05
4.85975e-05
3.77313e-05
1.86738e-05
8.1342e-06
7.29243e-06
6.85014e-06
7.23889e-06
7.98864e-06
7.4724e-06
1.33673e-05
4.29148e-05
3.2751e-05
1.71442e-05
7.33138e-06
6.18371e-06
5.88583e-06
6.0914e-06
6.84645e-06
6.33252e-06
1.14794e-05
3.84153e-05
2.84971e-05
1.62075e-05
7.10248e-06
5.56819e-06
5.26025e-06
5.32384e-06
6.02881e-06
5.53325e-06
1.00741e-05
3.46052e-05
2.47475e-05
1.56739e-05
6.94817e-06
5.06057e-06
4.81052e-06
4.83228e-06
5.40015e-06
5.0505e-06
8.93076e-06
3.16235e-05
2.13628e-05
1.56663e-05
6.88868e-06
4.94371e-06
4.61401e-06
4.46845e-06
5.02059e-06
4.68408e-06
8.07665e-06
2.89244e-05
1.81588e-05
1.57472e-05
7.74593e-06
4.86146e-06
4.56943e-06
4.42435e-06
4.70951e-06
4.63092e-06
7.34065e-06
2.68958e-05
1.50243e-05
1.59561e-05
8.19356e-06
5.29828e-06
4.65647e-06
4.36253e-06
4.69252e-06
4.53793e-06
6.84561e-06
2.48467e-05
1.18194e-05
1.62152e-05
9.40771e-06
5.46649e-06
4.7258e-06
4.58498e-06
4.71942e-06
4.83993e-06
6.48013e-06
2.34118e-05
8.56275e-06
1.72682e-05
1.14968e-05
6.19088e-06
5.17997e-06
4.76844e-06
4.97966e-06
4.94301e-06
6.55603e-06
2.16617e-05
5.39784e-06
1.86776e-05
1.38719e-05
7.79655e-06
5.84998e-06
5.33541e-06
5.35534e-06
5.81622e-06
6.67142e-06
2.04725e-05
3.63603e-06
2.14618e-05
1.83446e-05
1.03455e-05
7.36083e-06
6.35891e-06
6.28611e-06
6.50198e-06
9.00889e-06
1.89385e-05
3.75148e-06
2.39045e-05
2.44799e-05
1.66021e-05
1.00955e-05
7.93148e-06
7.90138e-06
8.42032e-06
1.35028e-05
1.86408e-05
0.310006
0.68515
0.682278
0.682014
0.681919
0.681936
0.682031
0.682347
0.685402
0.310248
0.0630587
0.0854618
0.0691779
0.0676006
0.0674359
0.0673422
0.0674949
0.0681943
0.0855361
0.0633612
0.0174818
0.0347961
0.0203562
0.0231781
0.0232859
0.0237039
0.0236751
0.0247213
0.0348729
0.0176442
0.00628728
0.0161542
0.00900443
0.0103127
0.0103948
0.0105131
0.0105911
0.0113554
0.0163434
0.00638365
0.00276249
0.0073237
0.00417608
0.00473441
0.00470581
0.00497136
0.00475055
0.00428449
0.00751133
0.00281293
0.00141597
0.0032501
0.00201056
0.00212879
0.00222098
0.00175198
0.0022551
0.0040152
0.00341481
0.00144232
0.000816692
0.00147073
0.000727299
0.00100847
0.000794914
0.00197455
0.000785767
0.00185334
0.00157966
0.000831615
0.000515287
0.000699725
0.000811937
0.000350044
0.00086697
0.000937631
0.000888758
0.00146066
0.00075716
0.000524853
0.000348505
0.000343556
0.000389901
0.00041632
0.000415992
0.000799484
0.000669251
0.000782455
0.000377497
0.000354685
0.000247185
0.000180545
0.000311487
0.000200488
0.000340856
0.000545677
0.000515721
0.000262487
0.000197064
0.000253276
0.000183612
0.000102473
0.000247259
0.000162079
0.000180349
0.000477913
0.000363168
0.000287196
0.000110218
0.000188236
0.000141403
6.36887e-05
0.000179977
8.69917e-05
7.99118e-05
0.000368334
0.000242875
0.000217901
6.64761e-05
0.000145208
0.000112258
4.25913e-05
9.64535e-05
3.65817e-05
2.93704e-05
0.000202849
0.000107397
0.000118616
4.2114e-05
0.00011565
9.12465e-05
3.03959e-05
4.16373e-05
3.54446e-05
2.95992e-05
7.04411e-05
9.85069e-05
5.24121e-05
2.78018e-05
9.45843e-05
7.5613e-05
2.28276e-05
1.94436e-05
2.46975e-05
2.0855e-05
7.37114e-05
7.308e-05
2.42134e-05
1.91574e-05
7.88963e-05
6.36663e-05
1.77333e-05
9.75226e-06
1.33869e-05
1.14559e-05
5.67068e-05
3.97911e-05
1.15089e-05
1.37261e-05
6.70338e-05
5.42853e-05
1.43446e-05
4.44058e-06
5.83996e-06
5.04052e-06
3.02224e-05
1.45297e-05
5.67186e-06
1.02281e-05
5.76626e-05
4.68162e-05
1.23099e-05
4.00811e-06
2.94739e-06
2.43813e-06
1.28511e-05
1.33455e-05
2.99646e-06
7.90043e-06
5.0431e-05
4.06646e-05
1.09051e-05
3.35602e-06
1.33738e-06
1.24223e-06
5.65062e-06
1.00685e-05
1.67159e-06
6.28282e-06
4.43655e-05
3.55372e-05
1.06338e-05
2.92267e-06
1.31638e-06
7.18946e-07
2.64037e-06
5.47224e-06
1.01027e-06
5.13522e-06
3.97143e-05
3.10876e-05
1.03573e-05
2.29596e-06
1.10715e-06
3.90757e-07
1.07439e-06
2.44511e-06
6.85649e-07
4.26037e-06
3.54735e-05
2.72255e-05
1.04258e-05
1.83413e-06
9.48066e-07
4.37376e-07
1.03771e-06
1.22501e-06
5.02091e-07
3.58759e-06
3.23582e-05
2.37246e-05
1.02158e-05
1.6913e-06
8.62867e-07
3.8814e-07
8.34234e-07
7.15649e-07
3.521e-07
3.03726e-06
2.91465e-05
2.04671e-05
1.06959e-05
1.82322e-06
8.13524e-07
3.97623e-07
5.05716e-07
4.37803e-07
3.84266e-07
2.57732e-06
2.69702e-05
1.73748e-05
1.08455e-05
2.02075e-06
7.36674e-07
3.30005e-07
4.81467e-07
4.76851e-07
3.70349e-07
2.1942e-06
2.42948e-05
1.44462e-05
1.17401e-05
2.64211e-06
6.89996e-07
3.4862e-07
4.0882e-07
4.10071e-07
3.74533e-07
1.83496e-06
2.26259e-05
1.16346e-05
1.22111e-05
3.76754e-06
9.43012e-07
3.88922e-07
3.19947e-07
4.01712e-07
3.31111e-07
1.56707e-06
1.99578e-05
8.90109e-06
1.30383e-05
5.78566e-06
1.33374e-06
5.66725e-07
3.93067e-07
3.7748e-07
4.06581e-07
1.27778e-06
1.84031e-05
6.47027e-06
1.44384e-05
8.08044e-06
2.42529e-06
8.034e-07
4.70202e-07
4.87708e-07
4.44654e-07
1.27353e-06
1.48698e-05
4.81215e-06
1.62032e-05
1.18379e-05
4.17605e-06
1.66192e-06
7.80598e-07
5.79014e-07
6.36251e-07
1.52173e-06
1.26617e-05
0.309708
0.68482
0.68204
0.681582
0.681641
0.681653
0.681679
0.682039
0.685085
0.309966
0.0626233
0.0843222
0.0674564
0.0670098
0.0665585
0.0666416
0.0673922
0.0674327
0.0844413
0.062923
0.0172533
0.0341749
0.0238502
0.0218725
0.0231025
0.0223627
0.0207059
0.0235213
0.034188
0.017409
0.00618127
0.0158574
0.0105908
0.000545109
0.0100461
0.0118718
0.00340229
0.0103012
0.0159685
0.00627413
0.0027125
0.00720291
0.00498737
2.45669e-07
0.00441518
0.000228949
3.22275e-07
0.00450502
0.00734316
0.00276118
0.00139162
0.00318039
0.00181396
9.15444e-08
0.00208318
8.97263e-06
1.4633e-07
0.00192879
0.00331637
0.00141659
0.000804109
0.00146119
0.00185444
2.14578e-07
0.000688234
2.43591e-05
9.19996e-08
0.00088015
0.00152481
0.000817879
0.000507484
0.00068794
0.000878724
5.09276e-07
0.000858002
2.18726e-05
6.34666e-08
0.000303422
0.00072451
0.00051688
0.000343244
0.000342197
0.000744958
9.06343e-07
0.000465951
1.55378e-05
5.33984e-08
0.000354944
0.000359988
0.000349937
0.000243795
0.000180475
0.000391817
8.27168e-07
0.000156627
1.70256e-05
4.13065e-08
0.000161812
0.000189257
0.000250333
0.000181296
0.000101705
0.000166854
4.72752e-07
0.000164553
1.61727e-05
2.50241e-07
0.000150908
0.00010606
0.000186591
0.000139602
6.24791e-05
7.49264e-05
5.35398e-07
8.51656e-05
1.47817e-05
1.02018e-07
7.18422e-05
6.37282e-05
0.000144405
0.000110757
4.11701e-05
3.69107e-05
4.63848e-07
4.38115e-05
1.24119e-05
1.34899e-07
6.1211e-05
4.04971e-05
0.000115333
9.0023e-05
2.89416e-05
4.10356e-05
4.57025e-07
2.14708e-05
1.05426e-05
1.29754e-07
3.3398e-05
2.69824e-05
9.4567e-05
7.45612e-05
2.12519e-05
3.17333e-05
4.50432e-07
1.19399e-05
8.64435e-06
1.03372e-07
1.49386e-05
1.86086e-05
7.90127e-05
6.27334e-05
1.65126e-05
1.76863e-05
7.98326e-07
1.28792e-05
6.17228e-06
8.90039e-08
5.57383e-06
1.33154e-05
6.72923e-05
5.34962e-05
1.3632e-05
6.49482e-06
4.22244e-07
1.0127e-05
3.4459e-06
7.20339e-08
5.50252e-06
9.82857e-06
5.79835e-05
4.60987e-05
1.18162e-05
7.04112e-06
5.10476e-07
4.71522e-06
1.14376e-06
6.7481e-08
3.81219e-06
7.56438e-06
5.08391e-05
4.00709e-05
1.06832e-05
4.13647e-06
4.64412e-07
4.38493e-06
1.61511e-06
7.23383e-08
2.07514e-06
6.01521e-06
4.4803e-05
3.49915e-05
1.02318e-05
2.42034e-06
4.24663e-07
2.12948e-06
1.30027e-06
8.19414e-08
9.05376e-07
4.88835e-06
4.02133e-05
3.06645e-05
1.01265e-05
1.58199e-06
2.67335e-07
1.71127e-06
1.10789e-06
5.67776e-08
4.31866e-07
3.9981e-06
3.59334e-05
2.68633e-05
1.01681e-05
1.85584e-06
1.66785e-07
1.43234e-06
5.11605e-07
5.2418e-08
2.18715e-07
3.32053e-06
3.28382e-05
2.34227e-05
1.00347e-05
1.66179e-06
1.71731e-07
6.62072e-07
5.42589e-07
1.39062e-08
1.18584e-07
2.72757e-06
2.95148e-05
2.02637e-05
1.04424e-05
1.70805e-06
1.7512e-07
5.46873e-07
4.64225e-07
7.85181e-08
7.39038e-08
2.28691e-06
2.73497e-05
1.73158e-05
1.07169e-05
2.0356e-06
2.62775e-07
2.91466e-07
2.4271e-07
7.08336e-08
5.00568e-08
1.84039e-06
2.44934e-05
1.45364e-05
1.16004e-05
2.46756e-06
3.64632e-07
1.80749e-07
1.04071e-07
6.46371e-08
3.94321e-08
1.53427e-06
2.27851e-05
1.19053e-05
1.19516e-05
3.80287e-06
6.53197e-07
1.44781e-07
7.36626e-08
3.71249e-08
2.7049e-08
1.16526e-06
2.01351e-05
9.36338e-06
1.23878e-05
5.18949e-06
1.0168e-06
2.17146e-07
5.7751e-08
3.85819e-08
3.3165e-08
9.67387e-07
1.78344e-05
7.0286e-06
1.31813e-05
7.03015e-06
1.61234e-06
3.47217e-07
8.71798e-08
3.34311e-08
2.95769e-08
6.6956e-07
1.4893e-05
4.90658e-06
1.38807e-05
9.00573e-06
2.76392e-06
6.83802e-07
1.86344e-07
5.81339e-08
3.73242e-08
6.83127e-07
1.11782e-05
0.309635
0.684746
0.681925
0.681525
0.681542
0.681558
0.681652
0.681913
0.684979
0.309894
0.0624901
0.0842254
0.0673802
0.0672939
0.0664465
0.0664481
0.066536
0.0673792
0.0842589
0.0627897
0.0171688
0.0341047
0.0236721
0.018942
0.0226644
0.0226463
0.023181
0.0222866
0.034095
0.0173234
0.00613574
0.0157894
0.0106147
0.0071497
0.0104867
0.00991535
0.0100076
0.00996084
0.01588
0.00622728
0.00268716
0.00714272
0.00487244
9.93939e-06
0.00316008
0.00420209
0.00443889
0.00363307
0.00727006
0.00273541
0.00137675
0.0031588
0.00218513
2.58535e-08
4.67476e-07
0.00233881
0.00195739
0.00338632
0.00329441
0.00140151
0.000794589
0.00143507
0.00106008
6.3414e-07
8.69823e-10
1.05946e-06
0.000403445
0.00154674
0.00152205
0.000808457
0.000501484
0.000673557
0.000371499
6.49704e-07
3.33491e-07
1.0364e-09
9.24502e-05
0.00123905
0.000728127
0.000510283
0.000338908
0.000336907
0.000453196
3.2662e-06
5.74152e-08
2.00447e-08
3.29485e-05
0.000958584
0.000364782
0.000345538
0.000240836
0.000176887
0.000211322
3.03292e-06
1.11062e-07
3.96851e-08
9.23503e-06
0.000654212
0.000193238
0.000246604
0.000179041
0.000100333
0.000194599
1.09199e-06
4.18166e-07
1.84294e-08
3.99212e-06
0.000346669
0.000108576
0.000184058
0.000137875
6.17229e-05
0.000152221
3.51033e-06
4.07638e-07
7.13325e-08
1.00722e-06
0.000146021
6.54311e-05
0.000142553
0.000109469
4.02053e-05
0.000121909
3.20332e-06
3.69228e-07
7.73757e-08
4.23261e-07
6.53198e-05
4.18118e-05
0.000113826
8.89945e-05
2.7527e-05
9.39847e-05
1.57338e-06
3.07229e-07
5.57952e-08
1.87171e-07
3.02791e-05
2.83706e-05
9.33233e-05
7.37481e-05
1.99862e-05
5.7524e-05
2.35553e-06
2.63244e-07
2.69325e-08
8.29019e-08
1.20244e-05
2.01518e-05
7.79844e-05
6.20784e-05
1.53244e-05
5.21751e-05
1.38382e-06
1.83104e-07
4.15817e-08
3.67546e-08
9.3628e-06
1.48297e-05
6.6455e-05
5.29634e-05
1.24252e-05
3.91897e-05
1.20204e-06
8.24039e-08
4.12057e-08
2.59559e-08
5.13739e-06
1.115e-05
5.72757e-05
4.566e-05
1.09472e-05
1.84631e-05
1.43742e-06
1.22097e-07
2.42823e-08
1.34596e-08
2.25679e-06
8.58026e-06
5.02425e-05
3.96953e-05
9.71407e-06
1.80657e-05
1.48264e-06
1.26815e-07
9.88347e-09
6.95861e-09
1.06425e-06
6.67901e-06
4.42421e-05
3.46809e-05
9.43547e-06
9.83289e-06
1.39881e-06
1.24936e-07
1.60085e-08
5.28457e-09
5.19814e-07
5.33254e-06
3.97175e-05
3.04023e-05
9.42084e-06
4.57767e-06
1.24901e-06
1.1929e-07
9.05015e-09
3.09975e-09
2.66307e-07
4.2779e-06
3.54621e-05
2.663e-05
9.44313e-06
2.61899e-06
7.06343e-07
6.56542e-08
1.35945e-08
2.04964e-09
1.46252e-07
3.52683e-06
3.24504e-05
2.32444e-05
9.37747e-06
1.85851e-06
4.18304e-07
8.38685e-08
6.85861e-09
1.61165e-09
8.61373e-08
2.87637e-06
2.91696e-05
2.01279e-05
9.69356e-06
1.7283e-06
3.05945e-07
5.3193e-08
1.47964e-08
2.6631e-09
5.51558e-08
2.4079e-06
2.70842e-05
1.72297e-05
1.01799e-05
1.92414e-06
2.87708e-07
5.70316e-08
8.11649e-09
2.21665e-09
3.6991e-08
1.9365e-06
2.42766e-05
1.44773e-05
1.12906e-05
2.44304e-06
3.75918e-07
5.29647e-08
1.54967e-08
1.28873e-09
2.52357e-08
1.60505e-06
2.26141e-05
1.18483e-05
1.17849e-05
3.71282e-06
6.19186e-07
9.51268e-08
1.29713e-08
3.87225e-09
1.8166e-08
1.21416e-06
1.99141e-05
9.28512e-06
1.23816e-05
5.18603e-06
1.05215e-06
1.78991e-07
3.76773e-08
4.7165e-09
1.04882e-08
9.8284e-07
1.769e-05
6.90415e-06
1.32965e-05
7.12491e-06
1.62975e-06
3.72885e-07
6.43926e-08
1.32624e-08
1.43306e-08
6.60869e-07
1.46029e-05
4.64382e-06
1.40115e-05
9.13689e-06
2.80983e-06
6.98868e-07
1.87508e-07
3.92213e-08
2.32409e-08
6.76346e-07
1.09155e-05
0.309635
0.684746
0.68194
0.681641
0.681379
0.681378
0.681486
0.681949
0.684977
0.309893
0.0624902
0.084221
0.0673446
0.066622
0.0667652
0.0667947
0.066822
0.0672864
0.0842633
0.0627893
0.0171688
0.0340814
0.0236758
0.021932
0.02059
0.0201949
0.0217039
0.0233814
0.0340772
0.0173224
0.00613564
0.0157319
0.0105063
0.0114435
0.00622621
0.00744171
0.00125672
0.0101929
0.0158345
0.00622625
0.00268709
0.00711351
0.00498129
0.000478378
3.18295e-07
4.90559e-07
8.19062e-07
0.00442633
0.00724648
0.00273477
0.00137667
0.0031235
0.00178316
3.48101e-05
3.98893e-08
5.84534e-09
4.08647e-07
0.00188646
0.00326245
0.00140115
0.000794375
0.00143202
0.00194761
3.70299e-05
3.20049e-08
1.42495e-09
2.42621e-07
0.000822508
0.00149628
0.000808411
0.000501421
0.000675356
0.00100666
2.06023e-05
1.53836e-08
9.72051e-11
1.2607e-07
0.000354131
0.000709625
0.000510279
0.000338874
0.000333826
0.000488522
1.71381e-05
1.216e-08
2.76144e-11
6.16323e-08
0.000184142
0.000350797
0.000345204
0.000240831
0.000177661
0.000433144
1.19729e-05
5.63526e-09
1.70239e-11
2.73184e-08
9.68274e-05
0.000184282
0.000246651
0.000179047
0.000100293
0.000228733
5.13006e-06
5.378e-09
3.87729e-11
2.02852e-08
3.36084e-05
0.000102657
0.000184019
0.000137862
6.14952e-05
0.0001016
6.96449e-06
2.93851e-09
1.79167e-11
1.29988e-08
3.8569e-05
6.17722e-05
0.000142346
0.000109401
3.99637e-05
3.58753e-05
3.84991e-06
1.00418e-09
2.08289e-11
6.89772e-09
3.02084e-05
3.89968e-05
0.000113594
8.89656e-05
2.7738e-05
4.09421e-05
1.67338e-06
1.06656e-09
1.31135e-11
2.9063e-09
1.65132e-05
2.57991e-05
9.31237e-05
7.37232e-05
1.987e-05
3.07822e-05
1.89147e-06
8.85913e-10
1.08765e-11
1.30782e-09
5.90531e-06
1.77877e-05
7.78343e-05
6.2074e-05
1.52736e-05
1.48511e-05
1.63319e-06
6.95018e-10
9.84884e-12
6.2651e-10
5.61349e-06
1.27646e-05
6.63068e-05
5.29507e-05
1.23185e-05
1.42478e-05
1.28605e-06
1.04463e-09
9.35761e-12
4.0672e-10
3.97593e-06
9.46781e-06
5.71254e-05
4.56639e-05
1.06812e-05
1.15273e-05
1.25374e-06
4.08515e-09
9.36025e-12
3.60446e-10
2.16189e-06
7.31803e-06
5.00939e-05
3.96967e-05
9.68365e-06
8.03796e-06
1.11579e-06
9.0283e-09
9.22529e-11
4.00685e-10
9.58415e-07
5.8007e-06
4.41062e-05
3.46806e-05
9.06519e-06
7.03832e-06
9.95354e-07
2.6919e-08
3.87554e-10
3.04784e-10
4.69604e-07
4.78078e-06
3.96124e-05
3.04077e-05
9.12935e-06
3.9993e-06
8.95563e-07
5.85018e-08
1.41146e-09
5.71006e-10
2.46201e-07
3.97787e-06
3.54005e-05
2.66352e-05
9.06777e-06
2.74636e-06
5.02665e-07
3.77566e-08
2.67988e-09
5.04125e-10
1.42678e-07
3.40852e-06
3.24531e-05
2.32565e-05
9.32036e-06
2.00311e-06
4.21815e-07
3.76297e-08
2.67658e-09
5.30569e-10
9.09737e-08
2.87245e-06
2.92242e-05
2.01412e-05
9.57382e-06
1.75524e-06
3.04564e-07
3.76966e-08
1.87414e-09
5.20031e-10
6.36846e-08
2.47059e-06
2.72029e-05
1.72446e-05
1.02314e-05
1.8447e-06
2.81847e-07
3.22699e-08
4.68821e-09
6.61766e-10
4.57991e-08
2.02561e-06
2.44341e-05
1.4502e-05
1.13399e-05
2.5606e-06
3.54709e-07
5.79664e-08
5.0269e-09
1.10445e-09
3.20126e-08
1.69771e-06
2.27928e-05
1.18814e-05
1.18585e-05
3.66694e-06
5.8954e-07
7.56081e-08
1.54927e-08
1.66204e-09
2.31064e-08
1.29378e-06
2.00593e-05
9.31486e-06
1.24354e-05
5.18711e-06
9.92691e-07
1.7257e-07
2.3555e-08
4.81417e-09
1.39836e-08
1.04771e-06
1.8094e-05
6.92036e-06
1.32946e-05
7.11483e-06
1.61272e-06
3.0463e-07
6.95853e-08
9.2124e-09
1.12115e-08
7.07878e-07
1.46351e-05
4.65096e-06
1.39801e-05
9.09341e-06
2.80977e-06
7.07192e-07
1.64661e-07
4.59683e-08
2.97281e-08
6.98034e-07
1.11118e-05
0.309709
0.684836
0.682008
0.681581
0.681515
0.681578
0.681672
0.681982
0.685067
0.309965
0.0626241
0.0843537
0.067573
0.0670059
0.0674506
0.0673585
0.0673856
0.0678341
0.0843968
0.0629222
0.0172535
0.0341097
0.0226846
0.0217538
0.017779
0.0195135
0.0204107
0.0211276
0.0340965
0.017407
0.00618115
0.0156937
0.00991835
0.000557193
0.00809358
0.00512121
0.00478218
0.00962873
0.0157923
0.00627169
0.00271249
0.00707736
0.00468465
2.12695e-07
2.999e-06
9.89101e-07
7.94983e-07
0.00243463
0.00716468
0.00275969
0.00139144
0.00311498
0.0017381
3.39854e-06
1.58614e-07
1.10901e-07
1.06375e-07
0.00096183
0.00321046
0.00141585
0.00080331
0.00142135
0.00169599
3.24493e-05
8.30849e-08
1.18318e-07
4.9327e-08
0.000409051
0.00146843
0.000817739
0.000507524
0.000675642
0.00131533
1.13133e-05
5.04059e-08
7.02741e-08
3.78331e-08
0.000185989
0.000696266
0.000516406
0.000342996
0.000333406
0.000749448
1.46471e-05
2.69246e-08
5.65673e-08
2.65585e-08
6.88677e-05
0.000343806
0.000349706
0.000244291
0.000174976
0.000343799
7.99358e-06
1.93786e-08
3.02212e-08
2.32233e-08
6.48057e-05
0.000180616
0.000249532
0.000181348
9.81905e-05
0.000161168
4.06316e-06
1.31791e-08
1.91835e-08
2.87855e-08
4.80415e-05
0.000101109
0.000186408
0.000139359
6.06329e-05
7.72352e-05
4.989e-06
9.66325e-09
1.4527e-08
2.0264e-08
2.93839e-05
6.12799e-05
0.00014426
0.000110431
4.01617e-05
3.51456e-05
3.75656e-06
1.09868e-08
9.07911e-09
1.28572e-08
1.26206e-05
3.93814e-05
0.000115163
8.96811e-05
2.83692e-05
1.62531e-05
2.0921e-06
1.32543e-08
5.68556e-09
2.58781e-08
1.12059e-05
2.66968e-05
9.43665e-05
7.43768e-05
2.13999e-05
8.27622e-06
7.34552e-07
1.38503e-08
5.52601e-09
2.07019e-08
8.07779e-06
1.88886e-05
7.88487e-05
6.26717e-05
1.68809e-05
3.48912e-06
9.09604e-07
1.20453e-08
3.71725e-09
1.1617e-08
4.44507e-06
1.38678e-05
6.71683e-05
5.35003e-05
1.40268e-05
3.7541e-06
4.49046e-07
1.39148e-08
4.89259e-09
8.41165e-09
2.01721e-06
1.04811e-05
5.79026e-05
4.6135e-05
1.21207e-05
3.03797e-06
4.05302e-07
5.51953e-09
4.5466e-09
1.07657e-08
1.00314e-06
8.18155e-06
5.07948e-05
4.01211e-05
1.10931e-05
2.644e-06
3.57712e-07
1.93529e-08
6.77117e-09
5.83082e-09
5.26737e-07
6.51733e-06
4.47719e-05
3.50414e-05
1.0221e-05
1.83339e-06
2.14209e-07
1.97019e-08
3.93794e-09
4.97249e-09
2.97502e-07
5.34558e-06
4.02054e-05
3.07192e-05
1.03074e-05
1.40026e-06
1.63075e-07
1.38056e-08
5.18388e-09
3.94145e-09
1.83055e-07
4.41813e-06
3.59763e-05
2.69139e-05
1.01168e-05
1.30677e-06
1.34133e-07
1.16783e-08
3.51873e-09
3.74597e-09
1.23898e-07
3.74718e-06
3.29547e-05
2.34807e-05
1.0319e-05
1.36372e-06
1.43615e-07
1.36234e-08
3.31269e-09
3.88068e-09
8.9447e-08
3.14331e-06
2.97428e-05
2.03103e-05
1.04782e-05
1.56884e-06
1.66635e-07
1.64031e-08
4.65555e-09
4.15729e-09
6.79263e-08
2.68595e-06
2.76609e-05
1.73756e-05
1.0826e-05
1.91173e-06
2.31633e-07
2.99466e-08
5.38122e-09
5.38109e-09
5.15768e-08
2.20444e-06
2.49384e-05
1.4609e-05
1.17151e-05
2.39951e-06
3.36982e-07
4.36499e-08
1.06359e-08
5.69578e-09
4.01608e-08
1.84099e-06
2.32196e-05
1.19955e-05
1.20933e-05
3.84236e-06
5.58137e-07
9.26365e-08
1.39938e-08
1.06024e-08
3.06729e-08
1.4127e-06
2.06139e-05
9.46299e-06
1.25217e-05
5.27705e-06
1.03728e-06
1.75962e-07
3.78139e-08
1.13811e-08
2.51533e-08
1.13952e-06
1.84599e-05
7.13572e-06
1.3317e-05
7.15191e-06
1.62135e-06
3.61216e-07
7.21669e-08
2.81181e-08
2.59648e-08
7.90661e-07
1.51704e-05
4.99173e-06
1.39289e-05
9.07404e-06
2.82363e-06
6.89462e-07
1.83911e-07
4.9082e-08
3.89214e-08
7.86966e-07
1.18316e-05
0.309998
0.685149
0.682279
0.682038
0.681944
0.681943
0.68204
0.682278
0.685398
0.310249
0.0630673
0.0853718
0.0690196
0.0674329
0.067289
0.0672891
0.0674432
0.0690124
0.0854583
0.0633639
0.0174867
0.0346407
0.0205789
0.0234576
0.0234432
0.0233106
0.0233516
0.0199576
0.0346565
0.0176425
0.00628726
0.0156621
0.00893797
0.0101393
0.0102375
0.0104617
0.0100932
0.00844619
0.0157421
0.00638036
0.00276242
0.00703801
0.00397169
0.00459439
0.00446733
0.00378327
0.00436804
0.00370043
0.00715199
0.00281099
0.00141605
0.00316131
0.00180043
0.00158414
0.00188705
0.00347431
0.00185614
0.00128141
0.00325269
0.00144129
0.000816875
0.00144424
0.000637742
0.00161411
0.000860776
0.0025873
0.00080672
0.0011088
0.00150522
0.00083102
0.000515241
0.000688205
0.000663487
0.000746987
0.000300048
0.0014673
0.000356652
0.000815406
0.000719594
0.000524244
0.000348114
0.000340558
0.000489953
0.000609423
0.000320141
0.000707928
0.000160176
0.000612442
0.000357958
0.000354248
0.000247187
0.000180059
0.000376431
0.000321458
0.000243373
0.00024255
7.33601e-05
0.00035998
0.000188645
0.000252599
0.000183661
9.99438e-05
0.000177593
0.000136654
0.00012911
0.000267154
3.36027e-05
0.000172558
0.000105095
0.000187984
0.000141412
6.1348e-05
0.000151338
6.16262e-05
5.65909e-05
0.000206152
1.70813e-05
7.53941e-05
6.26796e-05
0.000145115
0.000112088
4.04052e-05
0.000107511
2.99734e-05
2.166e-05
0.000109684
6.28501e-06
3.57852e-05
3.95808e-05
0.000115457
9.10592e-05
2.84996e-05
5.17349e-05
1.07194e-05
1.94792e-05
4.62214e-05
8.52627e-06
1.2976e-05
2.63317e-05
9.42799e-05
7.54564e-05
2.13618e-05
4.54256e-05
1.28461e-05
1.31928e-05
2.12621e-05
7.04866e-06
1.40305e-05
1.84007e-05
7.86e-05
6.35351e-05
1.6686e-05
3.41622e-05
1.0049e-05
7.30547e-06
9.19002e-06
3.5685e-06
1.05563e-05
1.34485e-05
6.67931e-05
5.42068e-05
1.38104e-05
1.87219e-05
5.63037e-06
3.22566e-06
8.83499e-06
3.39946e-06
5.77699e-06
1.01926e-05
5.74609e-05
4.67272e-05
1.19877e-05
7.98877e-06
2.64176e-06
1.67077e-06
6.5853e-06
1.99351e-06
2.59418e-06
8.02627e-06
5.02774e-05
4.06322e-05
1.0858e-05
5.26991e-06
1.48181e-06
9.0851e-07
3.63306e-06
1.08562e-06
1.31876e-06
6.5148e-06
4.42581e-05
3.54828e-05
1.03861e-05
2.8752e-06
7.67281e-07
5.68767e-07
1.67894e-06
6.46775e-07
7.49691e-07
5.45356e-06
3.96861e-05
3.11097e-05
1.03167e-05
2.91959e-06
7.96516e-07
3.47852e-07
8.82281e-07
5.24536e-07
4.39752e-07
4.63761e-06
3.55295e-05
2.72551e-05
1.04285e-05
2.13797e-06
7.33034e-07
3.58323e-07
5.41559e-07
4.19727e-07
4.70241e-07
3.99134e-06
3.25307e-05
2.37647e-05
1.03854e-05
1.75039e-06
6.83412e-07
3.34728e-07
3.51167e-07
3.20092e-07
4.21541e-07
3.44059e-06
2.94002e-05
2.05329e-05
1.06971e-05
1.87243e-06
5.80653e-07
3.27087e-07
3.4043e-07
3.35462e-07
3.83384e-07
2.94017e-06
2.7329e-05
1.74958e-05
1.12635e-05
2.1228e-06
5.56325e-07
2.90159e-07
2.8809e-07
2.99808e-07
3.04086e-07
2.5031e-06
2.46541e-05
1.45946e-05
1.21481e-05
2.84419e-06
6.24324e-07
3.29297e-07
3.31341e-07
3.28921e-07
2.96124e-07
2.06413e-06
2.30294e-05
1.18113e-05
1.27035e-05
4.16397e-06
9.24733e-07
3.83131e-07
3.22039e-07
3.35403e-07
2.99702e-07
1.74296e-06
2.03059e-05
9.07817e-06
1.34813e-05
6.18634e-06
1.36413e-06
5.99936e-07
4.01023e-07
3.72647e-07
3.50109e-07
1.37783e-06
1.86614e-05
6.64853e-06
1.47932e-05
8.45423e-06
2.49222e-06
8.20267e-07
5.31136e-07
5.00921e-07
4.56784e-07
1.37129e-06
1.5029e-05
4.94297e-06
1.63368e-05
1.2039e-05
4.34176e-06
1.72382e-06
8.69657e-07
6.92555e-07
6.64142e-07
1.63446e-06
1.28566e-05
0.311107
0.685762
0.6854
0.685066
0.684993
0.684993
0.685083
0.685396
0.686005
0.311347
0.0639834
0.0990314
0.0855529
0.0844161
0.0843236
0.0843197
0.0844554
0.0854689
0.0991851
0.0642707
0.0178544
0.0398009
0.0348556
0.0341997
0.0341326
0.0341061
0.0341412
0.0346626
0.0398722
0.0180309
0.00639867
0.0173574
0.0162968
0.0159707
0.0158975
0.0158476
0.0158038
0.0157469
0.0177278
0.00652159
0.00278475
0.00752542
0.00749007
0.00734902
0.00728891
0.00724339
0.00722408
0.00715998
0.00790257
0.00285285
0.00141103
0.00329374
0.00337603
0.00330899
0.00328511
0.0032817
0.00325715
0.00326014
0.00356486
0.00144387
0.000806991
0.00149798
0.00154818
0.00152767
0.00150831
0.00152493
0.00149602
0.00151018
0.00165296
0.000823511
0.000505336
0.000716067
0.000736292
0.000728627
0.000715957
0.000733323
0.000711006
0.000722757
0.000796905
0.000515725
0.000339223
0.000366342
0.000364501
0.00036258
0.000354974
0.000366068
0.000351912
0.000359715
0.000402024
0.000346481
0.000240353
0.000200813
0.000192197
0.000191666
0.000187621
0.000193086
0.000185151
0.000189641
0.000216543
0.000245634
0.000177524
0.000121737
0.000107118
0.000107222
0.000105176
0.000107973
0.000103767
0.000105834
0.000123726
0.000181933
0.000135234
8.08762e-05
6.41238e-05
6.45992e-05
6.36441e-05
6.52054e-05
6.3085e-05
6.32549e-05
7.93385e-05
0.000140024
0.00010649
5.78824e-05
4.10884e-05
4.13726e-05
4.07208e-05
4.18065e-05
4.08218e-05
4.00747e-05