/*--------------------------------*- C++ -*----------------------------------*\
| =========                 |                                                 |
| \\      /  F ield         | OpenFOAM: The Open Source CFD Toolbox           |
|  \\    /   O peration     | Version:  4.1                                   |
|   \\  /    A nd           | Web:      www.OpenFOAM.org                      |
|    \\/     M anipulation  |                                                 |
\*---------------------------------------------------------------------------*/
FoamFile
{
    version     2.0;
    format      ascii;
    class       volScalarField;
    location    "700";
    object      k;
}
// * * * * * * * * * * * * * * * * * * * * * * * * * * * * * * * * * * * * * //

dimensions      [0 2 -2 0 0 0 0];

internalField   nonuniform List<scalar> 
12000
(
0.116568
0.11397
0.113655
0.113581
0.113562
0.113562
0.11358
0.113657
0.113998
0.116599
0.0404565
0.0396861
0.039405
0.0392268
0.0391713
0.0391714
0.0392267
0.0394017
0.0396838
0.0404508
0.0169041
0.0166482
0.0166229
0.0164859
0.0164325
0.0164326
0.0164859
0.0166172
0.0166481
0.0169097
0.00836439
0.00828239
0.00821861
0.00813115
0.00809126
0.00809316
0.00813765
0.00822354
0.00827676
0.00836352
0.00476217
0.00479121
0.0046618
0.00459875
0.00457066
0.0045726
0.00460132
0.00467204
0.00478934
0.00475856
0.00301491
0.00308464
0.00301112
0.00296511
0.0029433
0.00294387
0.00296187
0.00301371
0.00307942
0.00301506
0.00206637
0.00214233
0.00212085
0.00208978
0.00207312
0.00207329
0.0020877
0.00212049
0.00213927
0.00206989
0.00150452
0.00157475
0.0015778
0.00155804
0.00154515
0.00154586
0.0015598
0.00157759
0.00157363
0.001511
0.00114824
0.00121376
0.00122767
0.00121536
0.00120538
0.0012061
0.00121743
0.00122858
0.00121117
0.00115554
0.000908888
0.000968112
0.000986874
0.000978169
0.000970305
0.000971158
0.000981176
0.000988667
0.000972021
0.000918208
0.000740529
0.000794427
0.00081389
0.000808121
0.000801782
0.000802381
0.000810178
0.000816384
0.000797483
0.000751371
0.000617798
0.000666798
0.000686155
0.000681807
0.000676738
0.000677419
0.000683571
0.000689082
0.000669626
0.00062929
0.000525648
0.000570713
0.000588802
0.000585665
0.00058164
0.000582341
0.000587673
0.000592577
0.000573783
0.000538073
0.000454598
0.000496632
0.000513381
0.00051117
0.000508036
0.000508874
0.000513308
0.000518056
0.000500473
0.000468495
0.000398407
0.000438009
0.000453881
0.000452282
0.000449876
0.000450826
0.00045469
0.000459303
0.000443312
0.000414375
0.000352899
0.000390607
0.000405813
0.000404915
0.000403111
0.000404303
0.000407765
0.000412138
0.000397536
0.000371362
0.000315202
0.000351548
0.000366397
0.000366112
0.000364854
0.000366197
0.000369456
0.000373807
0.000360464
0.000336746
0.00028325
0.00031878
0.000333435
0.000333896
0.00033329
0.000334953
0.000338076
0.000342209
0.000329851
0.000308352
0.000255529
0.000290847
0.000305711
0.000306749
0.000306689
0.000308485
0.000311749
0.000316095
0.000304798
0.000285165
0.000230817
0.000266505
0.000281896
0.00028373
0.000284352
0.000286653
0.000289902
0.000294109
0.000283759
0.000265777
0.000208122
0.000244755
0.000261227
0.000263783
0.000264842
0.000267348
0.000271084
0.000275889
0.000266791
0.000250139
0.000186448
0.000224668
0.000242907
0.000246481
0.000248377
0.000251652
0.000255403
0.000260249
0.000252358
0.000236933
0.000164866
0.000205167
0.000225993
0.000230912
0.000233203
0.000236868
0.000241542
0.000247482
0.000241325
0.000226891
0.000142072
0.000185214
0.00021014
0.00021706
0.000220591
0.000225213
0.000229906
0.000236225
0.000231709
0.000218532
0.000116715
0.000163061
0.000193728
0.00020345
0.000207665
0.000212988
0.000219396
0.000227576
0.000225226
0.000213216
8.54532e-05
0.000137284
0.000175678
0.000190505
0.000197269
0.000203614
0.000209856
0.00021935
0.000219115
0.0002097
4.75497e-05
0.000104633
0.000153693
0.000174498
0.000183751
0.000192161
0.000201263
0.000213561
0.000216089
0.000208927
3.08584e-05
6.90111e-05
0.0001244
0.000156241
0.000172379
0.000182089
0.000190571
0.000206226
0.000213271
0.000212606
4.00632e-05
5.75145e-05
8.08711e-05
0.000114749
0.000148185
0.000168355
0.000181632
0.000198982
0.000213599
0.000214002
6.48254e-05
8.32957e-05
8.68495e-05
8.86985e-05
0.000104456
0.000128834
0.000156571
0.000186351
0.000207412
0.000228355
0.11397
0.0215349
0.0192099
0.0191967
0.019198
0.019198
0.0191967
0.0192098
0.0215274
0.113943
0.0396855
0.00188973
0.00108741
0.00107697
0.00107674
0.00107687
0.00107709
0.00108795
0.00188687
0.0395702
0.016647
0.000863188
0.00037116
0.000364933
0.00036524
0.000365167
0.000364737
0.000372062
0.000857015
0.0165561
0.00828075
0.000532499
0.000296955
0.000288432
0.000288603
0.00028824
0.000287758
0.000295415
0.000527495
0.00816592
0.00478914
0.000354847
0.000273822
0.000268742
0.00026853
0.000267626
0.000268315
0.000271047
0.000335429
0.00469077
0.0030823
0.000264552
0.000222235
0.000225523
0.00022513
0.000226873
0.000235667
0.000216622
0.000244762
0.00301759
0.00213984
0.000217069
0.000170264
0.000179252
0.000180642
0.000180634
0.000192028
0.000167683
0.000202928
0.00210124
0.00157202
0.000185224
9.94757e-05
0.000105454
0.000102834
0.000110826
0.000118639
9.44657e-05
0.000131015
0.00154962
0.00121092
0.000246421
0.000133495
0.000145434
0.000147702
0.000152204
0.000158606
0.000136256
0.000221504
0.00119506
0.000965051
0.000302448
0.000182699
0.00020093
0.000202141
0.000201971
0.000192798
0.000185647
0.000287166
0.000962634
0.000791066
0.000322185
0.000199573
0.000213991
0.000216188
0.000214807
0.000206889
0.000208283
0.000329681
0.000793113
0.000663088
0.000314089
0.000182764
0.000199063
0.000199116
0.000199402
0.000200068
0.000200502
0.000324562
0.000669485
0.000566598
0.000296744
0.000156408
0.000173809
0.000170685
0.000175334
0.00017836
0.000179323
0.000294124
0.000576535
0.000492014
0.000271301
0.000130965
0.000146133
0.000140467
0.000149669
0.000154597
0.000153419
0.000257728
0.000505012
0.000432773
0.000245807
0.000109634
0.000120883
0.000113264
0.000125111
0.000130639
0.000127736
0.000220689
0.000448457
0.000384637
0.000221969
9.48961e-05
0.000100552
9.19218e-05
0.000103642
0.000109999
0.000105847
0.000187814
0.000402848
0.000344764
0.000202855
8.49903e-05
8.35013e-05
7.6568e-05
8.64168e-05
9.32738e-05
8.79864e-05
0.000161333
0.000365132
0.000311048
0.000187321
7.73223e-05
7.24767e-05
6.59121e-05
7.25547e-05
8.06346e-05
7.45109e-05
0.00014036
0.000334005
0.000282106
0.000177555
7.72552e-05
6.15925e-05
5.92206e-05
6.35279e-05
7.13545e-05
6.53619e-05
0.000124766
0.000307515
0.000256624
0.000169525
7.56389e-05
6.0582e-05
5.45729e-05
5.62902e-05
6.43334e-05
5.72886e-05
0.000112287
0.000285621
0.000233838
0.000168203
7.93658e-05
5.95409e-05
5.19985e-05
5.21705e-05
6.00011e-05
5.6348e-05
0.000103273
0.000266362
0.000212766
0.000168318
8.12076e-05
5.93399e-05
5.28284e-05
5.20483e-05
5.58778e-05
5.37944e-05
9.55349e-05
0.000250716
0.000192809
0.000170209
8.52949e-05
5.81612e-05
5.23992e-05
5.20526e-05
5.56558e-05
5.30869e-05
9.00733e-05
0.000236126
0.000172942
0.000171237
9.78357e-05
5.85006e-05
5.28147e-05
5.25283e-05
5.57705e-05
5.26202e-05
8.45913e-05
0.000224833
0.000152441
0.000174543
0.000102703
6.19081e-05
5.43502e-05
5.22972e-05
5.59802e-05
5.5628e-05
8.14997e-05
0.000212998
0.000129832
0.000178772
0.000116024
6.66232e-05
5.75297e-05
5.40126e-05
5.65289e-05
5.59623e-05
7.76474e-05
0.000205056
0.000104694
0.000189888
0.000135778
7.63386e-05
6.27017e-05
5.81314e-05
5.93786e-05
5.86064e-05
7.79718e-05
0.000193517
7.70571e-05
0.00020296
0.000162849
9.65439e-05
7.28822e-05
6.46389e-05
6.51237e-05
6.56138e-05
7.91403e-05
0.000189218
5.9321e-05
0.000222461
0.000199785
0.000124447
9.168e-05
7.70743e-05
7.43143e-05
7.50806e-05
9.61116e-05
0.000173581
6.04333e-05
0.000247833
0.000247978
0.00018375
0.000119115
9.6575e-05
9.24221e-05
9.41352e-05
0.000121596
0.00018338
0.113655
0.0192104
0.0169734
0.0169655
0.0169654
0.0169653
0.0169655
0.0169731
0.0192044
0.11359
0.0394045
0.0010878
0.000421022
0.000410652
0.000409714
0.0004086
0.000409446
0.000417433
0.00108473
0.0392582
0.0166218
0.00037161
3.07221e-05
4.14103e-05
4.16475e-05
4.31374e-05
4.31052e-05
4.5859e-05
0.000369731
0.0165138
0.00821654
0.000297514
4.4358e-06
1.31546e-05
1.34326e-05
1.655e-05
1.7714e-05
1.72378e-05
0.000293271
0.00811474
0.00465939
0.00027472
3.43212e-06
7.79876e-06
7.45687e-06
6.3148e-06
7.00063e-06
1.61448e-05
0.000267695
0.00456935
0.00300882
0.000222276
3.81964e-06
5.25358e-06
5.08899e-06
4.10455e-06
4.76465e-06
1.07792e-05
0.000215436
0.00293273
0.00211854
0.000170406
4.83983e-06
3.93732e-06
3.8418e-06
3.89136e-06
3.27411e-06
6.78337e-06
0.00016425
0.00206417
0.00157479
0.000101389
6.37535e-06
2.60755e-06
2.66773e-06
2.84365e-06
3.01609e-06
8.03624e-06
9.83044e-05
0.00154274
0.00122535
0.000132349
6.73288e-06
4.16841e-06
3.78621e-06
3.45183e-06
2.34971e-06
6.72523e-06
0.000121718
0.00120588
0.00098346
0.000187376
4.68342e-06
3.67237e-06
3.09678e-06
2.8726e-06
1.8926e-06
6.57432e-06
0.000164121
0.000977077
0.000810354
0.000209545
5.35766e-06
2.42418e-06
2.30544e-06
2.81232e-06
1.74368e-06
6.23663e-06
0.000189045
0.000811376
0.000682334
0.000208159
3.71951e-06
1.91359e-06
1.78768e-06
2.49299e-06
1.86952e-06
4.97759e-06
0.000181097
0.000688132
0.000585045
0.000192018
2.923e-06
1.6473e-06
1.45413e-06
1.90517e-06
1.70879e-06
3.4819e-06
0.000159454
0.000593519
0.000509372
0.00017016
3.03658e-06
1.13914e-06
9.1994e-07
1.25548e-06
1.23482e-06
2.42753e-06
0.000134507
0.000519942
0.000449168
0.000148428
1.88544e-06
8.52286e-07
6.56569e-07
1.17223e-06
9.51825e-07
1.838e-06
0.000110664
0.000461185
0.000400325
0.00012787
3.82029e-06
6.95304e-07
5.19328e-07
1.04029e-06
8.05825e-07
8.46724e-07
9.06832e-05
0.000414018
0.00035983
0.000111496
7.95948e-06
4.81689e-07
4.27814e-07
7.55671e-07
6.53083e-07
1.52593e-06
7.53025e-05
0.000374624
0.000325665
0.000103371
6.39951e-06
1.0713e-06
3.55193e-07
5.36692e-07
5.87205e-07
1.92729e-06
6.34944e-05
0.000342661
0.000296435
0.000105284
8.69537e-06
2.24666e-06
1.1505e-06
4.26855e-07
6.14511e-07
2.7171e-06
5.43811e-05
0.000314609
0.000270812
0.000106084
9.995e-06
2.84777e-06
9.32546e-07
3.81729e-07
5.22834e-07
1.8954e-06
4.74106e-05
0.000292178
0.000247864
0.000107056
1.17015e-05
2.4997e-06
1.61391e-06
7.42591e-07
4.2151e-07
2.00128e-06
4.16318e-05
0.000270959
0.000226723
0.000109471
1.50437e-05
2.85954e-06
2.01941e-06
1.00127e-06
8.64654e-07
2.08195e-06
3.69992e-05
0.000254764
0.000206817
0.000112441
2.39221e-05
3.84137e-06
2.37443e-06
1.12091e-06
1.29121e-06
2.28425e-06
3.28845e-05
0.000237549
0.000187753
0.000123572
2.81291e-05
4.96665e-06
2.76582e-06
1.54267e-06
1.74809e-06
2.43794e-06
2.93659e-05
0.000225453
0.000168515
0.000126728
2.82594e-05
5.94495e-06
3.82654e-06
1.95352e-06
2.43251e-06
2.88945e-06
2.59491e-05
0.000210144
0.00014894
0.000131917
3.45266e-05
1.01611e-05
4.28427e-06
2.42804e-06
2.93646e-06
3.37009e-06
2.29106e-05
0.000200295
0.000128889
0.000138497
4.88811e-05
1.12746e-05
6.09201e-06
3.36823e-06
3.24984e-06
3.80907e-06
1.96188e-05
0.000184498
0.000107835
0.000149651
7.35738e-05
1.76403e-05
6.9793e-06
4.40666e-06
4.03995e-06
4.11325e-06
1.68176e-05
0.000172891
8.71591e-05
0.000164653
0.000101401
3.13014e-05
1.13408e-05
6.34412e-06
5.48264e-06
5.06803e-06
1.47874e-05
0.000152678
7.15621e-05
0.000184267
0.00014319
5.47131e-05
2.19706e-05
1.02532e-05
7.53487e-06
7.06922e-06
1.64444e-05
0.000132228
0.113581
0.0191972
0.0169655
0.0169582
0.0169577
0.0169576
0.016958
0.0169655
0.0191913
0.113511
0.0392261
0.00107858
0.00040907
0.00040926
0.000397767
0.000397211
0.000403312
0.000408767
0.00107452
0.0390809
0.0164849
0.00036554
4.3847e-05
2.6742e-05
4.10802e-05
4.10715e-05
2.48123e-05
4.33906e-05
0.000363674
0.0163853
0.00812917
0.000288917
1.67857e-05
1.44322e-07
6.1037e-06
6.33047e-06
3.82111e-07
1.73588e-05
0.00028534
0.00803604
0.00459687
0.000269117
5.83299e-06
3.40353e-10
1.40005e-07
1.07032e-08
3.16725e-10
8.70053e-06
0.000263823
0.00451095
0.00296257
0.000226445
4.68187e-06
1.04404e-09
1.4694e-08
1.74979e-10
1.66806e-10
6.55416e-06
0.000218941
0.00288795
0.00208708
0.000179617
2.95951e-06
2.29216e-09
1.62734e-08
4.63282e-09
1.20576e-09
4.93998e-06
0.000174655
0.00203158
0.00155477
0.000105871
4.27669e-06
3.99534e-09
1.72288e-08
6.27951e-09
2.37362e-09
4.2274e-06
0.000102407
0.00152007
0.00121218
0.000147367
4.03337e-06
7.69649e-09
1.15545e-08
1.44713e-08
2.39827e-09
3.74329e-06
0.000139079
0.00119183
0.000974526
0.000201933
3.72425e-06
7.26892e-09
2.62156e-08
1.03184e-08
2.69923e-09
3.63585e-06
0.000188409
0.000967858
0.000804029
0.000218317
3.62046e-06
7.89733e-09
1.96718e-08
2.18869e-08
3.0115e-09
3.02328e-06
0.000206092
0.000805883
0.000677313
0.000204821
3.20025e-06
1.05553e-08
1.90462e-08
2.16265e-08
2.18274e-09
2.18886e-06
0.000190005
0.000685174
0.000580537
0.00018452
2.57458e-06
1.39497e-08
1.66589e-08
1.41139e-08
2.56593e-09
1.16178e-06
0.00016364
0.000592292
0.000505338
0.000160904
3.29041e-06
3.60058e-08
1.16783e-08
1.64338e-08
2.21619e-09
7.31131e-07
0.000134748
0.00052007
0.000445469
0.000136918
3.76676e-06
3.76535e-08
6.76191e-09
1.41652e-08
1.6535e-09
5.06639e-07
0.000108096
0.000461966
0.000396833
0.00011935
6.27884e-08
2.36645e-08
9.06761e-09
1.23117e-08
1.56733e-09
3.93465e-07
8.72153e-05
0.000415346
0.000356538
0.000107292
7.50598e-06
4.90916e-08
8.2993e-09
1.07318e-08
1.37781e-09
2.33471e-07
7.07292e-05
0.000376198
0.000322757
0.000104966
5.57957e-06
2.89836e-08
5.63151e-09
9.75776e-09
1.78635e-09
1.80249e-07
5.92169e-05
0.000344575
0.000293736
0.000104191
5.44826e-06
1.19919e-07
6.38967e-09
9.4774e-09
1.62369e-09
1.28148e-07
5.08778e-05
0.00031663
0.000268389
0.00010417
1.0001e-05
2.49831e-07
7.73583e-09
6.31839e-09
2.35909e-09
1.3322e-07
4.40805e-05
0.000294545
0.000245579
0.000103362
1.35836e-05
5.71137e-07
6.82292e-09
7.25433e-09
2.96506e-09
2.31537e-07
3.81613e-05
0.000273227
0.000224906
0.000111765
1.42584e-05
9.61842e-07
1.46169e-08
5.76201e-09
4.48372e-09
3.00634e-07
3.32229e-05
0.000257275
0.000205479
0.000114994
2.11232e-05
1.48879e-06
2.61534e-08
7.4298e-09
8.09311e-09
3.17611e-07
2.86041e-05
0.000239589
0.000186563
0.000114698
2.06948e-05
2.07642e-06
5.25802e-08
9.2826e-09
9.06155e-09
3.0365e-07
2.50472e-05
0.000227588
0.000168027
0.000122005
2.2928e-05
2.80884e-06
1.59239e-07
1.37287e-08
1.11311e-08
2.60788e-07
2.10314e-05
0.00021154
0.000149506
0.000130111
3.1155e-05
4.38828e-06
4.03704e-07
5.04247e-08
2.10411e-08
2.39059e-07
1.82347e-05
0.000201114
0.000130873
0.000137005
4.88163e-05
7.10629e-06
1.0766e-06
1.77e-07
4.90811e-08
1.87756e-07
1.44733e-05
0.000185177
0.000111575
0.000143612
6.62428e-05
1.39442e-05
2.18855e-06
3.55377e-07
9.01794e-08
1.90748e-07
1.21891e-05
0.000172456
9.22412e-05
0.000154665
9.11942e-05
2.19222e-05
4.51553e-06
1.03984e-06
2.85835e-07
2.36567e-07
8.57015e-06
0.000149013
7.2841e-05
0.000163201
0.000114009
3.89997e-05
9.58294e-06
2.24954e-06
5.74542e-07
3.1607e-07
7.47692e-06
0.000132609
0.113562
0.0191985
0.0169654
0.0169581
0.0169575
0.0169574
0.0169576
0.0169655
0.0191926
0.113492
0.0391705
0.00107724
0.000409404
0.000404599
0.000396891
0.000396094
0.000397578
0.000409467
0.00107529
0.0390257
0.016431
0.000365746
4.24251e-05
2.72334e-05
4.06644e-05
4.04293e-05
4.14475e-05
4.0292e-05
0.000364297
0.016333
0.0080887
0.000289167
1.51997e-05
1.35763e-06
6.67692e-06
6.67863e-06
4.34245e-06
1.14126e-05
0.000285672
0.00799773
0.00456771
0.000269925
1.04875e-05
4.61903e-09
4.55998e-08
1.63327e-07
1.06627e-07
8.61213e-06
0.000263593
0.00448303
0.00294064
0.00022643
6.13458e-06
2.84005e-10
4.28866e-13
2.70078e-10
1.1916e-08
7.1851e-06
0.000218692
0.00286601
0.00206994
0.000178567
7.9098e-06
3.51487e-09
2.87528e-14
5.18933e-15
5.12921e-09
5.99813e-06
0.000172891
0.00201456
0.00154184
0.000115393
6.18502e-06
6.1653e-09
1.27632e-12
4.15305e-15
6.36962e-09
5.26579e-06
0.000103869
0.00150651
0.00120192
0.000155245
6.83786e-06
8.93285e-09
2.11092e-12
1.7983e-12
3.68934e-09
3.83825e-06
0.000132556
0.00118137
0.000966533
0.000211606
5.02885e-06
1.57981e-08
1.704e-11
1.40862e-11
2.9164e-09
2.6239e-06
0.000181308
0.000958633
0.000797521
0.000222151
4.38462e-06
1.47156e-08
7.1083e-11
4.71726e-11
1.90901e-09
1.83977e-06
0.000200433
0.000798356
0.000671874
0.000206616
3.501e-06
3.78459e-08
1.30798e-10
5.40505e-11
1.09506e-09
1.32339e-06
0.000189701
0.000679052
0.000576133
0.000178767
2.07849e-06
3.88363e-08
1.29084e-10
5.28451e-11
9.25434e-10
9.87751e-07
0.000170683
0.000587125
0.000501554
0.00014834
2.0558e-06
3.40497e-08
1.61568e-10
4.19377e-11
7.78565e-10
7.41037e-07
0.000148326
0.000515501
0.000442242
0.000125202
2.0727e-06
2.07247e-08
1.90879e-10
4.50861e-11
6.66173e-10
6.0107e-07
0.000125765
0.000457971
0.000394037
0.000105924
1.80805e-06
4.29594e-08
3.76265e-10
2.36675e-11
5.23925e-10
3.91428e-07
0.000104721
0.000411962
0.000354209
9.78572e-05
1.79851e-06
5.34864e-08
6.34611e-10
6.46293e-11
4.28171e-10
2.65189e-07
8.57455e-05
0.000373258
0.000320612
9.23259e-05
2.79369e-06
6.36791e-08
1.0061e-09
8.49608e-11
2.98597e-10
2.1158e-07
7.05171e-05
0.000342088
0.00029195
9.47505e-05
3.37418e-06
1.15206e-07
1.28685e-09
1.07553e-10
4.08275e-10
1.53492e-07
5.7873e-05
0.000314268
0.000266767
9.43899e-05
6.25924e-06
1.27773e-07
4.31476e-09
8.7948e-11
4.22857e-10
2.88897e-07
4.86443e-05
0.000292396
0.000244188
9.32107e-05
7.28213e-06
2.25872e-07
4.05104e-09
2.81734e-10
4.43151e-10
3.93024e-07
4.09566e-05
0.000271051
0.000223741
0.000102736
1.0729e-05
4.64104e-07
2.11963e-08
7.27135e-10
5.92845e-10
4.39885e-07
3.56114e-05
0.000255352
0.00020433
0.000102156
1.62744e-05
1.03737e-06
4.63265e-08
1.53522e-09
1.53667e-09
4.18542e-07
3.06e-05
0.000237761
0.000185619
0.00010616
1.74958e-05
1.79229e-06
1.02696e-07
6.05608e-09
5.38489e-10
3.85018e-07
2.69848e-05
0.000226107
0.000167296
0.00011748
2.18224e-05
2.5139e-06
2.53814e-07
1.65724e-08
2.37638e-09
3.21571e-07
2.283e-05
0.000210249
0.000148961
0.000127747
2.89385e-05
3.85577e-06
4.02601e-07
3.15306e-08
2.63518e-09
2.62058e-07
1.96172e-05
0.000200226
0.00013035
0.000136168
4.76652e-05
7.01385e-06
9.84157e-07
1.58515e-07
1.9936e-08
1.94376e-07
1.55085e-05
0.00018406
0.000110817
0.000144205
6.64565e-05
1.35636e-05
2.01199e-06
2.668e-07
2.05225e-08
1.44846e-07
1.24495e-05
0.000171558
9.11123e-05
0.000157075
9.26823e-05
2.18441e-05
4.28438e-06
8.4915e-07
1.97678e-07
1.39127e-07
8.66269e-06
0.000147731
7.01937e-05
0.000164069
0.000116423
3.97517e-05
1.02217e-05
2.33221e-06
5.24159e-07
2.44215e-07
6.88583e-06
0.000130146
0.113562
0.0191985
0.0169653
0.0169578
0.0169579
0.0169579
0.016958
0.0169653
0.0191926
0.113492
0.0391704
0.00107724
0.000408281
0.000396942
0.00040706
0.000407035
0.000408363
0.000407969
0.00107541
0.0390259
0.0164309
0.000365743
4.28941e-05
4.07756e-05
2.67266e-05
2.67505e-05
2.65919e-05
4.2973e-05
0.000364093
0.0163335
0.00808947
0.000288875
1.81043e-05
7.57914e-06
5.97506e-07
6.49213e-07
2.15718e-07
1.7146e-05
0.000285146
0.00799977
0.00456912
0.000269461
8.2921e-06
1.25586e-08
1.39764e-10
1.35216e-10
7.42759e-11
9.25063e-06
0.000262638
0.00448543
0.00294216
0.000224654
6.90728e-06
6.40261e-10
2.48035e-15
1e-15
2.75816e-11
5.88231e-06
0.000219155
0.00286768
0.00207122
0.000177149
4.55001e-06
7.55398e-09
3.06899e-14
1.38903e-15
6.24961e-11
3.2429e-06
0.000174608
0.0020153
0.00154196
0.000107133
3.36385e-06
8.06304e-09
4.24653e-14
1.02547e-15
9.22775e-11
3.65017e-06
0.000102317
0.00150708
0.00120189
0.000153967
2.51792e-06
1.02611e-08
1.39707e-13
1.02727e-14
1.65477e-10
3.69295e-06
0.000138028
0.00118149
0.000966446
0.000206628
3.19832e-06
1.28637e-08
2.66504e-13
2.09816e-14
1.67272e-10
2.9003e-06
0.000190508
0.000959007
0.000797396
0.000220683
3.13082e-06
1.92098e-08
2.5121e-13
3.58072e-14
9.43328e-11
2.72248e-06
0.00020581
0.000798705
0.000671834
0.000204972
2.74502e-06
2.54224e-08
1.0402e-12
3.27908e-14
4.55547e-11
1.46342e-06
0.000188059
0.00067919
0.000575947
0.000177385
2.94559e-06
2.33194e-08
1.73007e-12
5.36661e-14
3.49745e-11
8.88988e-07
0.000161202
0.000587007
0.000501384
0.000150883
1.88404e-06
2.33335e-08
6.27038e-12
9.45444e-14
4.39686e-11
5.96204e-07
0.000133996
0.000515139
0.000442144
0.00012495
1.49275e-06
2.51654e-08
1.21064e-11
1.78102e-13
7.06405e-11
4.73967e-07
0.000108545
0.000457508
0.000393897
0.000104997
1.75141e-06
3.7786e-08
7.23576e-11
4.53159e-13
1.30376e-10
2.69475e-07
8.78465e-05
0.000411381
0.00035418
0.00010029
2.74522e-06
2.96011e-08
1.47723e-10
8.98381e-13
1.70863e-10
1.89227e-07
7.14034e-05
0.000372568
0.000320707
9.7372e-05
3.32205e-06
7.19309e-08
6.66581e-09
1.38483e-12
4.07153e-10
1.60891e-07
5.97446e-05
0.000341332
0.000291883
9.16726e-05
3.24717e-06
8.10892e-08
1.24285e-09
1.0947e-11
3.90583e-10
9.51796e-08
5.07367e-05
0.000313492
0.000266844
9.58018e-05
4.29555e-06
1.11864e-07
1.10653e-09
1.65576e-11
9.14385e-10
2.45505e-07
4.48516e-05
0.000291701
0.000244256
9.41225e-05
5.66064e-06
1.34558e-07
2.9862e-09
5.31481e-11
9.85067e-10
3.92721e-07
3.98183e-05
0.000270497
0.000223693
9.79933e-05
7.53445e-06
2.20013e-07
3.85426e-09
5.71975e-11
1.66049e-09
4.87728e-07
3.63976e-05
0.000255097
0.000204332
0.000100523
1.04463e-05
4.88056e-07
2.30802e-08
4.32169e-10
1.68102e-09
5.11031e-07
3.25043e-05
0.00023778
0.000185646
0.000105502
1.5057e-05
1.1764e-06
7.48061e-08
3.98515e-09
2.28369e-09
4.83807e-07
2.93649e-05
0.000226564
0.000167352
0.00011781
2.01196e-05
2.15344e-06
1.55734e-07
1.63631e-08
2.75071e-09
4.21313e-07
2.51907e-05
0.000210892
0.000149057
0.000128387
2.92315e-05
3.79612e-06
4.75677e-07
3.3499e-08
6.59194e-09
3.40308e-07
2.1631e-05
0.000201515
0.000130515
0.000137146
4.92218e-05
7.15298e-06
8.44232e-07
1.3099e-07
1.3433e-08
2.56458e-07
1.70983e-05
0.000184533
0.000111019
0.000144713
6.80194e-05
1.42839e-05
2.40142e-06
3.01689e-07
5.94345e-08
1.73597e-07
1.34999e-05
0.00017409
9.12542e-05
0.000156836
9.28347e-05
2.25455e-05
4.43125e-06
9.12439e-07
2.44701e-07
2.10981e-07
9.42125e-06
0.000148183
7.02489e-05
0.000163288
0.000116152
3.94144e-05
1.06354e-05
2.42536e-06
5.41541e-07
2.29787e-07
7.27406e-06
0.000132284
0.11358
0.0191972
0.0169655
0.0169582
0.0169581
0.016958
0.0169581
0.0169657
0.0191913
0.113511
0.0392255
0.00107751
0.000410599
0.000409272
0.00040501
0.000401748
0.000403281
0.000412034
0.00107563
0.0390814
0.0164841
0.000365572
3.99057e-05
2.67206e-05
2.50107e-05
2.4138e-05
2.48794e-05
3.49142e-05
0.000364087
0.0163869
0.00813057
0.000289173
1.14302e-05
1.45698e-07
7.58474e-07
4.25478e-07
4.29967e-07
4.65186e-06
0.000285431
0.00804068
0.0046004
0.000268895
6.01587e-06
5.66929e-10
9.00999e-10
4.54306e-10
2.52679e-10
1.18461e-06
0.000263071
0.00451774
0.00296716
0.000219775
4.5422e-06
1.89841e-09
2.43451e-10
1.99092e-10
4.64442e-10
1.3216e-06
0.000219499
0.0028923
0.00209029
0.000171339
2.9331e-06
1.6554e-08
4.48808e-10
1.29199e-09
6.89161e-10
1.43303e-06
0.00017425
0.00203425
0.00155575
9.98526e-05
4.13147e-06
1.91674e-08
6.96161e-10
4.53691e-10
1.87319e-09
1.33469e-06
0.000101138
0.0015212
0.0012121
0.00014068
4.04534e-06
3.52757e-08
8.18701e-10
9.21535e-10
2.75032e-09
1.43903e-06
0.000139452
0.00119287
0.000974779
0.000194043
3.17661e-06
3.64177e-08
1.52485e-09
1.22896e-09
3.93981e-09
1.5145e-06
0.000193477
0.000967545
0.000803894
0.000209564
2.12147e-06
3.93803e-08
1.93223e-09
1.52521e-09
5.82043e-09
1.92701e-06
0.000207416
0.000805692
0.000676857
0.00020186
2.64774e-06
4.35127e-08
2.37806e-09
1.13114e-09
6.0574e-09
1.65373e-06
0.000192981
0.000684875
0.000579928
0.000182522
2.41e-06
4.1908e-08
3.37832e-09
1.11454e-09
1.37529e-08
1.22855e-06
0.000168877
0.000591858
0.000504412
0.000163295
2.45608e-06
2.83754e-08
2.2854e-09
1.32139e-09
1.32611e-08
7.26779e-07
0.000142568
0.000519494
0.000444663
0.000145741
1.86176e-06
3.90285e-08
1.76681e-09
1.83332e-09
1.35921e-08
5.00091e-07
0.000117615
0.000461402
0.000396391
0.000128389
2.35838e-06
3.1864e-08
1.59182e-09
2.46812e-09
1.60618e-08
3.60782e-07
9.67045e-05
0.000414865
0.000356357
0.00011369
3.69867e-06
5.45374e-08
3.31014e-09
3.08994e-09
1.81644e-08
3.64027e-07
7.9822e-05
0.000375841
0.000322787
0.000110906
4.51097e-06
7.70355e-08
5.66079e-09
4.46096e-09
2.31473e-08
6.60939e-07
6.71805e-05
0.000344379
0.000293876
0.000109028
6.9567e-06
1.27116e-07
8.90058e-09
2.81434e-09
2.23776e-08
9.23881e-07
5.71614e-05
0.000316524
0.00026862
0.000108401
9.31018e-06
2.66574e-07
9.93787e-09
8.59583e-09
2.58308e-08
1.04094e-06
4.99729e-05
0.000294517
0.000245796
0.000106574
1.34238e-05
5.11129e-07
2.32811e-08
1.10104e-08
2.85681e-08
1.01736e-06
4.38758e-05
0.000273368
0.000225165
0.000114887
1.58173e-05
8.98998e-07
4.82553e-08
1.55168e-08
3.28424e-08
9.26479e-07
3.95891e-05
0.000257673
0.000205763
0.000117988
1.63644e-05
1.28076e-06
1.24734e-07
2.2589e-08
3.62606e-08
7.98413e-07
3.52386e-05
0.000240536
0.000186897
0.000118916
1.89001e-05
1.90413e-06
1.68938e-07
3.84944e-08
4.55809e-08
6.83171e-07
3.17078e-05
0.000228996
0.000168349
0.000123672
2.31204e-05
2.77015e-06
3.60978e-07
5.807e-08
5.09743e-08
5.57569e-07
2.7351e-05
0.000213757
0.000149895
0.000131559
3.14377e-05
4.43404e-06
5.33335e-07
1.2223e-07
8.49165e-08
4.61873e-07
2.34556e-05
0.000203869
0.000131409
0.000138645
5.09839e-05
7.68459e-06
1.21056e-06
1.86221e-07
9.30077e-08
3.56379e-07
1.87241e-05
0.000187779
0.000112242
0.000145231
6.86391e-05
1.48596e-05
2.43926e-06
5.06638e-07
1.97486e-07
3.12055e-07
1.47146e-05
0.000176692
9.30832e-05
0.000156187
9.30891e-05
2.29647e-05
4.91083e-06
9.62377e-07
2.55349e-07
3.1609e-07
1.04717e-05
0.000151092
7.36142e-05
0.000163652
0.000114952
3.95065e-05
1.05653e-05
2.61297e-06
7.41884e-07
4.9107e-07
7.99774e-06
0.000136773
0.113657
0.0192103
0.0169734
0.0169655
0.0169654
0.0169654
0.0169655
0.0169734
0.0192045
0.113589
0.0394005
0.0010884
0.000420746
0.000408973
0.000407935
0.000407908
0.000408627
0.00042077
0.00108519
0.0392572
0.016615
0.00037238
3.03713e-05
4.31521e-05
4.31141e-05
4.33228e-05
4.30487e-05
3.01484e-05
0.000370823
0.0165158
0.00822041
0.000296884
7.13716e-06
1.77596e-05
1.71282e-05
1.69615e-05
1.74603e-05
6.83254e-06
0.000293085
0.00812707
0.00466938
0.000270816
5.53204e-06
7.81848e-06
9.66682e-06
9.81036e-06
8.70932e-06
5.05354e-06
0.000265187
0.00458467
0.0030109
0.000216726
6.04443e-06
7.81646e-06
5.41363e-06
5.53318e-06
5.07686e-06
4.82209e-06
0.000211501
0.00293953
0.00211735
0.000164651
4.75806e-06
4.89415e-06
4.69225e-06
5.67426e-06
2.91874e-06
4.94383e-06
0.000160721
0.00206544
0.001573
9.39317e-05
7.1141e-06
2.89714e-06
3.79818e-06
3.38312e-06
2.44138e-06
5.76327e-06
9.51764e-05
0.00154114
0.00122339
0.000134241
5.52046e-06
3.41126e-06
2.42808e-06
3.97229e-06
1.76536e-06
5.3534e-06
0.000123899
0.00120486
0.000982601
0.000185672
4.23384e-06
3.10303e-06
3.09152e-06
4.31081e-06
2.28545e-06
3.77241e-06
0.000174525
0.000975572
0.00080937
0.000212499
3.68871e-06
3.06713e-06
2.55615e-06
3.07286e-06
2.60592e-06
3.95342e-06
0.000193367
0.000810521
0.000681841
0.000209868
2.83123e-06
2.62717e-06
1.76992e-06
1.97615e-06
1.90934e-06
3.44016e-06
0.000179109
0.000687791
0.000584502
0.000192641
2.52858e-06
1.64755e-06
1.3669e-06
1.32478e-06
2.94464e-06
2.13148e-06
0.000155875
0.00059321
0.000508765
0.000169396
2.66553e-06
2.7694e-06
8.79774e-07
1.00658e-06
2.97832e-06
1.84679e-06
0.000133063
0.00051931
0.000448556
0.000147956
2.12925e-06
1.03888e-06
6.02485e-07
7.78966e-07
2.39718e-06
8.38357e-07
0.000111178
0.000460335
0.000399805
0.000128734
1.88089e-06
5.49083e-07
5.30527e-07
6.2804e-07
1.30319e-06
8.00289e-07
9.28031e-05
0.000413166
0.000359343
0.000113348
2.80557e-06
5.41476e-07
3.79867e-07
4.80778e-07
1.52719e-06
3.36739e-07
7.78889e-05
0.000373812
0.000325435
0.0001114
5.81182e-06
2.05886e-06
6.94046e-07
5.65441e-07
2.52987e-06
1.29654e-06
6.68648e-05
0.000341982
0.000296259
0.000109861
5.45589e-06
2.66579e-06
1.26958e-06
1.72021e-07
1.91574e-06
2.32068e-06
5.85118e-05
0.000314052
0.000270708
0.000109549
7.05319e-06
3.26365e-06
1.84591e-06
9.23079e-07
2.74053e-06
2.63087e-06
5.26611e-05
0.000291886
0.000247712
0.000108111
8.81424e-06
2.90183e-06
1.87566e-06
1.7122e-06
2.57552e-06
2.61839e-06
4.7772e-05
0.000271
0.000226844
0.000117596
1.15074e-05
3.12821e-06
2.02845e-06
1.56071e-06
3.0211e-06
2.75688e-06
4.36919e-05
0.000255359
0.000207206
0.000121378
1.56514e-05
3.6028e-06
2.22057e-06
1.84214e-06
3.20663e-06
3.0537e-06
3.96406e-05
0.00023862
0.000187933
0.000120788
2.0615e-05
4.2254e-06
2.41714e-06
2.13613e-06
3.35452e-06
2.89126e-06
3.5427e-05
0.000227226
0.000168934
0.000128277
2.57685e-05
5.14855e-06
2.8613e-06
2.58503e-06
3.5334e-06
3.47318e-06
3.11717e-05
0.00021223
0.000149665
0.000136413
3.76269e-05
7.4288e-06
3.52262e-06
3.10788e-06
3.68464e-06
3.42902e-06
2.65946e-05
0.000202782
0.000129949
0.000144564
5.48313e-05
1.21064e-05
4.83669e-06
3.77715e-06
4.03909e-06
3.8209e-06
2.24935e-05
0.000186908
0.000109126
0.000155113
7.89506e-05
1.90326e-05
7.41027e-06
4.93025e-06
4.77733e-06
4.61184e-06
1.86111e-05
0.000175319
8.87464e-05
0.000168926
0.00010587
3.32092e-05
1.2291e-05
6.88101e-06
6.46005e-06
5.82715e-06
1.63343e-05
0.000154235
7.29242e-05
0.000185654
0.000144594
5.70337e-05
2.3493e-05
1.12317e-05
8.61008e-06
8.28157e-06
1.81543e-05
0.000133765
0.113998
0.0215285
0.019205
0.0191919
0.0191932
0.0191932
0.0191919
0.0192051
0.0215235
0.113933
0.0396824
0.00188801
0.00108533
0.00107618
0.00107479
0.00107491
0.00107508
0.00108577
0.00188051
0.0395476
0.0166456
0.000858303
0.000370182
0.000364353
0.0003646
0.000364436
0.000364252
0.000371347
0.000854649
0.0165335
0.00827427
0.000528889
0.000294534
0.0002862
0.000286453
0.000286528
0.000286109
0.000293878
0.0005159
0.00814625
0.00478614
0.000336777
0.000268303
0.000264056
0.000264569
0.000263841
0.000263478
0.000265971
0.000322329
0.00466893
0.0030752
0.000246774
0.000218262
0.000221439
0.000220571
0.00022154
0.000221292
0.000213307
0.000227521
0.00299802
0.00213518
0.000203691
0.000166587
0.000175804
0.000176388
0.000175598
0.000176603
0.000162795
0.000186933
0.0020868
0.00156752
0.000138457
0.000101917
0.000105269
0.000104661
0.00010683
0.000103937
9.70951e-05
0.000129461
0.00153881
0.00120735
0.000222008
0.000120226
0.000136114
0.00014025
0.000133031
0.000140819
0.000125549
0.000174874
0.001191
0.000963674
0.000294241
0.000177311