/*--------------------------------*- C++ -*----------------------------------*\
| =========                 |                                                 |
| \\      /  F ield         | OpenFOAM: The Open Source CFD Toolbox           |
|  \\    /   O peration     | Version:  4.1                                   |
|   \\  /    A nd           | Web:      www.OpenFOAM.org                      |
|    \\/     M anipulation  |                                                 |
\*---------------------------------------------------------------------------*/
FoamFile
{
    version     2.0;
    format      ascii;
    class       volScalarField;
    location    "700";
    object      nut;
}
// * * * * * * * * * * * * * * * * * * * * * * * * * * * * * * * * * * * * * //

dimensions      [0 2 -1 0 0 0 0];

internalField   nonuniform List<scalar> 
12000
(
0.00382673
0.00375651
0.00375013
0.00374883
0.0037485
0.00374848
0.0037488
0.00375037
0.00375944
0.00382988
0.00225747
0.0022155
0.00221606
0.00221134
0.00220977
0.00220975
0.00221124
0.00221533
0.00221501
0.00225595
0.00145457
0.00139682
0.00142234
0.00141751
0.00141523
0.00141521
0.00141736
0.00142083
0.00139674
0.00145492
0.00102087
0.00096424
0.000966553
0.000962279
0.000959891
0.00096032
0.000963792
0.000967465
0.000962935
0.00101969
0.000772651
0.000741093
0.00070755
0.000701166
0.000699069
0.000699572
0.000701551
0.000710331
0.000740366
0.000770383
0.000616586
0.000605359
0.000575663
0.000567887
0.000565523
0.000565577
0.000565891
0.000576022
0.000603495
0.000615227
0.000510951
0.000510419
0.000494781
0.000487861
0.000485624
0.000485474
0.000486252
0.000493758
0.000508812
0.000510585
0.000436187
0.000439955
0.000433605
0.000429188
0.000427164
0.000427343
0.000429355
0.000432585
0.000438326
0.000436482
0.000381405
0.000389498
0.000388362
0.000385873
0.000384266
0.000384425
0.000386415
0.000387594
0.00038752
0.000382275
0.000339693
0.000350371
0.000352493
0.000351163
0.000349839
0.000349939
0.000351164
0.00035282
0.000348517
0.000340654
0.000306871
0.000318836
0.000322503
0.000321676
0.00032058
0.000320784
0.0003225
0.000323016
0.000321034
0.000309095
0.000280199
0.000292333
0.000297346
0.000296743
0.000295789
0.000295892
0.000297305
0.000297943
0.000295762
0.000283308
0.000258269
0.000270155
0.000275526
0.00027504
0.000274179
0.000274319
0.000275801
0.000276199
0.000272788
0.000261684
0.000240053
0.000251774
0.000256898
0.000256648
0.00025591
0.000256107
0.000257445
0.000257979
0.000253619
0.000243794
0.000224691
0.000236376
0.00024122
0.000241087
0.000240525
0.000240771
0.00024194
0.000242709
0.000238038
0.00022906
0.000211487
0.000223224
0.000227965
0.000227874
0.000227457
0.00022778
0.000228832
0.000229743
0.000225209
0.000216804
0.000199922
0.000211812
0.000216574
0.000216509
0.000216192
0.000216584
0.000217575
0.000218649
0.000214447
0.000206513
0.000189571
0.000201685
0.000206478
0.000206643
0.000206463
0.000206967
0.000207911
0.000209033
0.000205178
0.000197714
0.000180105
0.000192616
0.00019757
0.000197882
0.000197894
0.000198456
0.000199486
0.000200775
0.000197244
0.00019022
0.0001712
0.000184271
0.000189457
0.000190241
0.000190438
0.000191197
0.000192215
0.000193499
0.000190285
0.000183708
0.000162578
0.000176506
0.000182189
0.000183257
0.000183615
0.000184488
0.000185765
0.000187342
0.000184432
0.000178246
0.000153878
0.000168979
0.000175668
0.000177013
0.000177733
0.000178912
0.000180193
0.000181801
0.000179277
0.000173489
0.000144691
0.000161384
0.000169043
0.000171199
0.000172077
0.000173456
0.000175163
0.000177194
0.000175181
0.000169736
0.000134303
0.000153205
0.000163211
0.00016587
0.000167274
0.00016904
0.00017079
0.00017298
0.000171528
0.000166627
0.000121739
0.000143763
0.000156749
0.000160568
0.0001622
0.000164315
0.000166802
0.000169779
0.000169004
0.00016434
0.000104208
0.000131816
0.000149125
0.000155261
0.000158054
0.000160563
0.000163021
0.000166625
0.000166564
0.000163567
7.76401e-05
0.000115091
0.000139456
0.000148675
0.000152354
0.000155914
0.00015969
0.000164303
0.000165461
0.000161564
6.28699e-05
9.37028e-05
0.000125706
0.000139944
0.000147991
0.000151751
0.000154988
0.000161703
0.000163952
0.000166217
7.16788e-05
8.59193e-05
0.000101094
0.000121438
0.000135547
0.000145465
0.000152914
0.0001575
0.000165482
0.000160443
9.09143e-05
0.000102607
0.0001067
9.99242e-05
0.000121074
0.000127517
0.0001379
0.000156156
0.000159761
0.000172208
0.00375654
6.08906e-05
4.84738e-05
4.84292e-05
4.84422e-05
4.84422e-05
4.84291e-05
4.8473e-05
6.08205e-05
0.00375334
0.00221554
3.25075e-06
1.24543e-06
1.23743e-06
1.23897e-06
1.23936e-06
1.23775e-06
1.24803e-06
3.23604e-06
0.00219402
0.00139684
1.69013e-06
3.56378e-07
3.50637e-07
3.52108e-07
3.52222e-07
3.5118e-07
3.59602e-07
1.66078e-06
0.00136995
0.000964201
1.50548e-06
4.91366e-07
4.71815e-07
4.7493e-07
4.75415e-07
4.74429e-07
5.00269e-07
1.44231e-06
0.000922475
0.000740943
1.58773e-06
9.21403e-07
9.02596e-07
9.08692e-07
9.05261e-07
9.12918e-07
9.43506e-07
1.34532e-06
0.000696442
0.000605115
2.08529e-06
1.36668e-06
1.43394e-06
1.43973e-06
1.47838e-06
1.58078e-06
1.32553e-06
1.63642e-06
0.000568708
0.000510099
3.14729e-06
1.77304e-06
1.99246e-06
2.04982e-06
2.04029e-06
2.31813e-06
1.74983e-06
2.47355e-06
0.00048302
0.00043954
4.82858e-06
1.27179e-06
1.46307e-06
1.39461e-06
1.63893e-06
1.85995e-06
1.16174e-06
2.15547e-06
0.000419232
0.00038899
1.68035e-05
4.66402e-06
5.57765e-06
5.82413e-06
6.20007e-06
6.70905e-06
4.88509e-06
1.20864e-05
0.000372999
0.000349817
4.54362e-05
1.66687e-05
2.02611e-05
2.05713e-05
2.06857e-05
1.89483e-05
1.74572e-05
3.68292e-05
0.000337786
0.000318188
8.34879e-05
3.53761e-05
4.0769e-05
4.18208e-05
4.11829e-05
3.86659e-05
3.85184e-05
7.99317e-05
0.000313976
0.00029155
0.000118123
4.92998e-05
5.78403e-05
5.83442e-05
5.80875e-05
5.89698e-05
5.82688e-05
0.000116467
0.000290941
0.000269237
0.000145347
5.68157e-05
6.81414e-05
6.67754e-05
6.92872e-05
7.09055e-05
7.13301e-05
0.000136818
0.00027029
0.000250692
0.000158119
5.9389e-05
7.04294e-05
6.69311e-05
7.38125e-05
7.6716e-05
7.56073e-05
0.000144914
0.000252987
0.000235077
0.000161636
5.86255e-05
6.74466e-05
6.18905e-05
7.1456e-05
7.57127e-05
7.2874e-05
0.000141187
0.000238551
0.000221634
0.000159094
5.81478e-05
6.27978e-05
5.57509e-05
6.58978e-05
7.13581e-05
6.71176e-05
0.000131692
0.000226395
0.000209874
0.00015577
5.86115e-05
5.6447e-05
5.07868e-05
5.97975e-05
6.59263e-05
6.05092e-05
0.000121404
0.00021582
0.000199339
0.00015198
5.82556e-05
5.3473e-05
4.73529e-05
5.35234e-05
6.1009e-05
5.46769e-05
0.000111882
0.000206601
0.000189831
0.000151942
6.60364e-05
4.68194e-05
4.60775e-05
5.01765e-05
5.73604e-05
5.14556e-05
0.000104807
0.000198321
0.000180973
0.000150867
7.02339e-05
5.34171e-05
4.55396e-05
4.68156e-05
5.44064e-05
4.66447e-05
9.8852e-05
0.000191125
0.000172691
0.000157106
7.98177e-05
5.73006e-05
4.62614e-05
4.60117e-05
5.37439e-05
5.16439e-05
9.5283e-05
0.000184521
0.000164633
0.000162677
8.5421e-05
6.26234e-05
5.22138e-05
5.04549e-05
5.20372e-05
5.15682e-05
9.19767e-05
0.000178894
0.000156617
0.000166434
9.50501e-05
6.15822e-05
5.35567e-05
5.4572e-05
5.55276e-05
5.41494e-05
9.04072e-05
0.000173487
0.000148237
0.000167584
0.000111215
6.33573e-05
5.49401e-05
5.6128e-05
5.94397e-05
5.38121e-05
8.77322e-05
0.000169153
0.000139205
0.000171838
0.000115861
6.51032e-05
5.70938e-05
5.64237e-05
6.01044e-05
6.13722e-05
8.73257e-05
0.000164333
0.000128354
0.000177385
0.000128781
7.30777e-05
6.30305e-05
5.72658e-05
6.09388e-05
5.82365e-05
8.37362e-05
0.000161642
0.000115205
0.000187928
0.000144319
8.47185e-05
6.83084e-05
6.37805e-05
6.37241e-05
6.25377e-05
8.34596e-05
0.000155593
9.90028e-05
0.000198492
0.000172059
0.000107594
8.17205e-05
7.04793e-05
7.12744e-05
6.66181e-05
8.44926e-05
0.000157397
8.71028e-05
0.000207531
0.000195821
0.000134729
0.00010277
8.40775e-05
7.90689e-05
7.80283e-05
9.22832e-05
0.000143186
8.76178e-05
0.00023125
0.000226079
0.000183034
0.000126487
0.000105832
9.72952e-05
9.47148e-05
9.855e-05
0.00016236
0.00375016
4.84761e-05
3.8003e-05
3.79825e-05
3.79872e-05
3.79861e-05
3.79815e-05
3.79978e-05
4.84283e-05
0.00374292
0.0022161
1.24615e-06
2.30614e-07
2.24512e-07
2.24033e-07
2.23127e-07
2.23545e-07
2.29968e-07
1.23805e-06
0.00218917
0.00142238
3.57179e-07
4.17298e-09
6.65856e-09
6.7039e-09
7.06533e-09
7.06332e-09
7.65634e-09
3.52797e-07
0.00139103
0.000966402
4.93145e-07
1.96667e-10
1.51016e-09
1.56222e-09
2.34482e-09
2.66647e-09
2.35506e-09
4.73628e-07
0.000928374
0.000707293
9.27453e-07
2.53862e-10
1.15618e-09
1.06346e-09
7.21917e-10
9.28482e-10
5.47529e-09
8.58627e-07
0.000668025
0.000575414
1.36814e-06
6.53086e-10
1.16686e-09
1.04945e-09
8.65454e-10
9.06019e-10
2.60442e-09
1.22324e-06
0.000536691
0.000494605
1.77697e-06
2.89861e-09
1.3835e-09
1.67106e-09
6.90204e-10
1.22782e-09
2.23449e-09
1.53706e-06
0.000461116
0.000433153
1.32219e-06
4.50534e-09
1.74817e-09
7.38793e-10
7.76179e-10
9.21187e-10
3.97923e-09
1.14868e-06
0.000408122
0.000387749
4.58868e-06
1.04638e-08
3.75627e-09
3.10147e-09
1.34132e-09
7.42474e-10
5.20232e-09
3.53214e-06
0.000368985
0.000352156
1.75019e-05
6.33766e-09
6.05407e-09
2.53216e-09
1.361e-09
6.25094e-10
1.48196e-08
1.23016e-05
0.000339239
0.000321878
3.85645e-05
1.04482e-08
3.26321e-09
2.65239e-09
1.48944e-09
7.53475e-10
1.21889e-08
2.91823e-05
0.000314763
0.000296331
6.1231e-05
6.91829e-09
3.78847e-09
3.59924e-09
1.5186e-09
1.29515e-09
1.02334e-08
4.44018e-05
0.000293492
0.000274414
7.79123e-05
7.97228e-09
6.67611e-09
6.47945e-09
1.61041e-09
2.44696e-09
9.1988e-09
5.43357e-05
0.000274136
0.000255916
8.5732e-05
1.9931e-08
3.29493e-09
2.57325e-09
2.01389e-09
1.3931e-09
1.01191e-08
5.85682e-05
0.000257237
0.00024014
8.68587e-05
1.64547e-08
2.64704e-09
1.86034e-09
1.67779e-09
1.11573e-09
1.25567e-08
5.75332e-05
0.000242626
0.000226547
8.29837e-05
1.34689e-07
3.2502e-09
2.11884e-09
1.71757e-09
1.46872e-09
5.60652e-09
5.39198e-05
0.000230137
0.000214662
7.79959e-05
1.28402e-06
3.57574e-09
3.26797e-09
1.70051e-09
2.64193e-09
3.69476e-08
4.98963e-05
0.000219048
0.000203886
7.81236e-05
9.19596e-07
3.50451e-08
4.65708e-09
2.01721e-09
2.32534e-09
1.11565e-07
4.59264e-05
0.000209544
0.000194485
9.14829e-05
2.02766e-06
3.39674e-07
9.58986e-08
2.90206e-09
3.37549e-09
3.97489e-07
4.23627e-05
0.000200789
0.000185736
9.5248e-05
3.0763e-06
5.54461e-07
1.08865e-07
4.96693e-09
4.49577e-09
3.20041e-07
3.93944e-05
0.000193459
0.000177861
9.95912e-05
5.36735e-06
5.07941e-07
5.99924e-07
4.61934e-08
6.53973e-09
5.2572e-07
3.66139e-05
0.000186272
0.000169926
0.00010345
1.11051e-05
7.7624e-07
8.39148e-07
8.69508e-08
5.49271e-08
7.76961e-07
3.43419e-05
0.000180523
0.000162263
0.000111383
3.04523e-05
1.53911e-06
1.30729e-06
1.3555e-07
2.0967e-07
1.33372e-06
3.20437e-05
0.000174246
0.000155009
0.000128488
3.90584e-05
2.72897e-06
1.73149e-06
4.23528e-07
6.28188e-07
1.39206e-06
3.01136e-05
0.000169618
0.000147096
0.000133272
3.55676e-05
4.31781e-06
3.99331e-06
7.13368e-07
1.11679e-06
2.02891e-06
2.76191e-05
0.000163592
0.0001382
0.000133405
4.06067e-05
1.34673e-05
4.73853e-06
1.29784e-06
1.89248e-06
2.7292e-06
2.57447e-05
0.00015958
0.000128506
0.000141374
5.70778e-05
1.21318e-05
8.5882e-06
3.1913e-06
2.3662e-06
3.94373e-06
2.21055e-05
0.000153502
0.000117575
0.00015459
8.42046e-05
2.09981e-05
7.73559e-06
4.44625e-06
3.89136e-06
3.74512e-06
1.9921e-05
0.000146183
0.000105669
0.00016899
0.000114523
3.63586e-05
1.44079e-05
7.70373e-06
5.54706e-06
5.19874e-06
1.54532e-05
0.000141089
9.57787e-05
0.000188598
0.000155883
6.45149e-05
2.61406e-05
1.21208e-05
8.8248e-06
7.06898e-06
1.59935e-05
0.000124278
0.00374886
4.84328e-05
3.79808e-05
3.79736e-05
3.79683e-05
3.79672e-05
3.79675e-05
3.79811e-05
4.83843e-05
0.00374114
0.00221135
1.24168e-06
2.23262e-07
2.24958e-07
2.13943e-07
2.13078e-07
2.17228e-07
2.23009e-07
1.2306e-06
0.00218455
0.00141757
3.51889e-07
7.25488e-09
2.9426e-09
6.57426e-09
6.78892e-09
2.67597e-09
7.20399e-09
3.48172e-07
0.00138795
0.000962183
4.73756e-07
2.39439e-09
3.43895e-12
3.33756e-10
3.03806e-10
3.86233e-12
2.63266e-09
4.58886e-07
0.000926346
0.000701127
9.04934e-07
6.13978e-10
4.24377e-14
3.99561e-13
4.50334e-14
2.80143e-14
1.5123e-09
8.53067e-07
0.00066326
0.000567623
1.45107e-06
1.08756e-09
1.07163e-12
9.32815e-15
3.07109e-16
1.71133e-14
2.00443e-09
1.30087e-06
0.000529877
0.000487533
1.98716e-06
4.25078e-10
2.20368e-12
3.46308e-14
7.92997e-14
1.42225e-12
2.49537e-09
1.80048e-06
0.000454171
0.000428696
1.46639e-06
1.8733e-09
2.82095e-12
3.11362e-14
1.62253e-13
7.98953e-12
5.30081e-09
1.30274e-06
0.000402326
0.000385281
5.71175e-06
1.96538e-09
5.88214e-12
2.57874e-14
1.21302e-12
9.69412e-12
3.55295e-09
4.83593e-06
0.000365328
0.000350594
2.03347e-05
3.18593e-09
5.74895e-12
3.94909e-13
5.62807e-13
1.58747e-11
7.35268e-09
1.68808e-05
0.000336781
0.00032092
4.2177e-05
7.07024e-09
1.18733e-11
2.11654e-13
2.66581e-12
3.26175e-12
5.45111e-09
3.60423e-05
0.000313253
0.000295753
6.04305e-05
1.2302e-08
1.87286e-11
3.83348e-13
2.84768e-12
4.2031e-12
6.00206e-09
5.09846e-05
0.000292591
0.000273861
7.44298e-05
1.61623e-08
3.77572e-11
5.70094e-13
1.44443e-12
4.39265e-12
1.98455e-09
5.95113e-05
0.000273754
0.000255301
8.05107e-05
2.37455e-08
2.55298e-10
5.7168e-13
2.30553e-12
3.40672e-12
1.44049e-09
6.0563e-05
0.000257411
0.000239533
7.93905e-05
4.02405e-08
2.83285e-10
3.44651e-13
2.08908e-12
2.38039e-12
1.54643e-09
5.65132e-05
0.000243089
0.000225923
7.76374e-05
2.00615e-11
6.31332e-11
5.74567e-13
2.21022e-12
2.48403e-12
2.49978e-09
5.14132e-05
0.000230726
0.000213861
7.60001e-05
7.8071e-07
5.13681e-10
6.12133e-13
3.00803e-12
2.37182e-12
8.91555e-10
4.58089e-05
0.000219671
0.000203378
8.39191e-05
3.97925e-07
1.48106e-10
6.05327e-13
7.49215e-12
4.25595e-12
7.67031e-10
4.17215e-05
0.00021019
0.000193789
9.14536e-05
6.45846e-07
2.78687e-09
8.37987e-13
5.00517e-12
3.28004e-12
7.12224e-10
3.873e-05
0.000201391
0.000185272
9.545e-05
3.71921e-06
1.32279e-08
2.5292e-12
2.76326e-12
6.11264e-12
1.76423e-09
3.57745e-05
0.000194167
0.000177007
9.49522e-05
1.04972e-05
1.09816e-07
2.4483e-12
4.27505e-12
1.39358e-11
1.11721e-08
3.2782e-05
0.000186979
0.000169467
0.000110564
9.85922e-06
4.99221e-07
1.34248e-11
5.84057e-12
3.45175e-11
3.71912e-08
2.99165e-05
0.000181409
0.000162234
0.000118601
2.4165e-05
1.1616e-06
9.2981e-11
9.15643e-12
4.23901e-10
7.65609e-08
2.69975e-05
0.000175039
0.000154587
0.000113384
2.25665e-05
2.21582e-06
4.54989e-10
1.67053e-11
9.41192e-11
1.12285e-07
2.46896e-05
0.000170447
0.000146743
0.000125004
2.32424e-05
2.70217e-06
7.82986e-09
6.98896e-11
1.57427e-10
1.2228e-07
2.16306e-05
0.000164428
0.000138389
0.000131341
3.54023e-05
4.7531e-06
8.11506e-08
2.19886e-09
6.16447e-10
1.30437e-07
1.95047e-05
0.000159764
0.000129479
0.000141347
5.63975e-05
6.95799e-06
7.20513e-07
3.82772e-08
5.83991e-09
1.17295e-07
1.61791e-05
0.000153272
0.000119658
0.000149841
7.61018e-05
1.72106e-05
1.9852e-06
1.96817e-07
1.89703e-08
9.87376e-08
1.38225e-05
0.000150086
0.000108949
0.000163331
0.000106466
2.6826e-05
5.28517e-06
1.11624e-06
2.19949e-07
1.70293e-07
9.87257e-06
0.000134186
9.7323e-05
0.000172694
0.000129897
4.95267e-05
1.20867e-05
2.44407e-06
5.11043e-07
2.4089e-07
7.36524e-06
0.000141585
0.00374853
4.84448e-05
3.79868e-05
3.79764e-05
3.79731e-05
3.79718e-05
3.79671e-05
3.79878e-05
4.83984e-05
0.00374078
0.00220978
1.24002e-06
2.2388e-07
2.18935e-07
2.1336e-07
2.12499e-07
2.13811e-07
2.23952e-07
1.23503e-06
0.00218301
0.00141525
3.53009e-07
6.84306e-09
3.52387e-09
6.56639e-09
6.49589e-09
6.6697e-09
6.55594e-09
3.50318e-07
0.00138593
0.000959695
4.76622e-07
1.95887e-09
2.32015e-11
3.8261e-10
4.04864e-10
1.69583e-10
1.17684e-09
4.62517e-07
0.000924439
0.000698787
9.18046e-07
2.03162e-09
1.9319e-13
5.92203e-14
5.71341e-13
2.30518e-13
1.83734e-09
8.60146e-07
0.000661246
0.000565292
1.46079e-06
1.55001e-09
2.80785e-13
3.54101e-20
2.80688e-18
6.52865e-15
1.37208e-09
1.30657e-06
0.000527474
0.000485304
1.99972e-06
5.31173e-09
1.75338e-12
8.55403e-20
2.28761e-24
5.86894e-15
2.09342e-09
1.7675e-06
0.000451798
0.000426644
1.7792e-06
9.26757e-09
5.26544e-12
4.39617e-19
1.49778e-21
3.94968e-14
2.01411e-09
1.33355e-06
0.000400291
0.000383628
6.43822e-06
9.28533e-09
2.19877e-12
6.98487e-18
1.45201e-17
3.71795e-14
1.38318e-09
4.33516e-06
0.000363514
0.000349104
2.27826e-05
1.07705e-08
7.40613e-12
2.35297e-16
4.49989e-16
8.28895e-14
9.47146e-10
1.53103e-05
0.000335388
0.000319724
4.42688e-05
8.89132e-09
1.78474e-11
1.08749e-15
1.08671e-14
8.21593e-14
8.78732e-10
3.33001e-05
0.00031166
0.000294668
6.22481e-05
7.24689e-09
3.67225e-11
3.77719e-15
3.68599e-15
1.0715e-13
1.07945e-09
4.94989e-05
0.000291121
0.000272897
7.15372e-05
3.18936e-09
4.23758e-11
4.06156e-15
3.24824e-15
1.82106e-13
1.34429e-09
6.27084e-05
0.00027256
0.000254399
7.19448e-05
4.04715e-09
6.63186e-11
7.64694e-15
2.83697e-15
2.91471e-13
1.63222e-09
6.97927e-05
0.000256278
0.000238677
7.05884e-05
6.72152e-09
1.64108e-11
1.24566e-14
6.79286e-15
4.81784e-13
2.70414e-09
7.06395e-05
0.000242053
0.0002251
6.58936e-05
5.63897e-09
1.20027e-10
6.95875e-14
1.2124e-15
6.72154e-13
1.47279e-09
6.65544e-05
0.000229842
0.000213199
6.93624e-05
7.42838e-09
2.14195e-10
4.39856e-13
9.12313e-15
6.35685e-13
1.232e-09
5.93455e-05
0.000218922
0.000202612
7.00791e-05
3.80447e-08
2.53894e-10
7.46145e-13
2.6754e-14
5.96184e-13
1.78525e-09
5.21592e-05
0.000209627
0.00019325
8.31772e-05
5.67184e-08
8.05674e-10
1.17524e-12
1.05336e-13
2.15588e-12
1.99236e-09
4.51318e-05
0.000200913
0.000184679
8.49826e-05
3.58595e-07
1.05041e-09
1.34113e-11
4.34853e-14
3.04523e-12
1.44505e-08
3.99367e-05
0.000193733
0.000176517
8.30012e-05
1.04259e-06
3.67622e-09
1.23814e-11
7.89341e-13
5.7019e-12
5.22032e-08
3.52906e-05
0.000186458
0.000169185
0.000100595
3.95575e-06
2.74446e-08
6.15887e-10
3.50034e-12
1.54329e-11
1.19074e-07
3.23621e-05
0.000180842
0.000161655
0.000100159
1.28259e-05
2.31537e-07
2.30304e-09
3.09277e-11
1.31865e-10
1.83033e-07
2.92982e-05
0.000174419
0.000154059
0.000104635
1.594e-05
9.44969e-07
1.78441e-08
2.23085e-10
9.79961e-12
2.41887e-07
2.72172e-05
0.000169885
0.000146196
0.000122018
2.22745e-05
1.97691e-06
1.01662e-07
3.04541e-09
2.29286e-10
2.51594e-07
2.42234e-05
0.000163879
0.000137944
0.000130085
3.08506e-05
3.55936e-06
2.75426e-07
5.77386e-09
4.84953e-10
2.44918e-07
2.15789e-05
0.000159552
0.000129065
0.000141602
5.50733e-05
7.15047e-06
9.16365e-07
1.74342e-07
9.23753e-09
1.87185e-07
1.78282e-05
0.000153109
0.000119033
0.000151155
7.66446e-05
1.57367e-05
2.03546e-06
1.70033e-07
8.03681e-09
1.80034e-07
1.41926e-05
0.000149739
0.000108215
0.000167001
0.000108507
2.63507e-05
4.4304e-06
1.0078e-06
2.65177e-07
1.21562e-07
1.02196e-05
0.000134506
9.54912e-05
0.000172907
0.000133513
5.06144e-05
1.34553e-05
2.61071e-06
6.30443e-07
2.30959e-07
6.30938e-06
0.000139655
0.00374851
4.84447e-05
3.79859e-05
3.79686e-05
3.79836e-05
3.79837e-05
3.79781e-05
3.79851e-05
4.83986e-05
0.00374079
0.00220977
1.24008e-06
2.22771e-07
2.12853e-07
2.23362e-07
2.23236e-07
2.24603e-07
2.22623e-07
1.23524e-06
0.00218304
0.00141523
3.53245e-07
6.99411e-09
6.82283e-09
3.12229e-09
3.18908e-09
2.93228e-09
7.10828e-09
3.5011e-07
0.0013861
0.000959893
4.77399e-07
2.80773e-09
4.51776e-10
5.16063e-12
5.09734e-12
3.33254e-12
2.59581e-09
4.62138e-07
0.000925063
0.000699239
9.18651e-07
1.24231e-09
2.96727e-14
5.52332e-15
3.35433e-15
6.06207e-16
1.73997e-09
8.56706e-07
0.000662111
0.000565907
1.45421e-06
2.40805e-09
1.05987e-15
1.38807e-23
1.53969e-23
1.67546e-16
1.65079e-09
1.32496e-06
0.000528225
0.000486039
1.9723e-06
9.5668e-10
1.38689e-13
2.64861e-21
1.21862e-22
1.44884e-15
1.15072e-09
1.83382e-06
0.000452156
0.000426762
1.52951e-06
1.01166e-09
2.84004e-13
1.055e-20
9.73636e-22
6.07887e-15
3.38614e-09
1.32772e-06
0.000400598
0.000383647
6.39112e-06
1.168e-09
5.52923e-13
1.44459e-19
3.43935e-19
3.99859e-14
6.66553e-09
4.88789e-06
0.000363938
0.000349048
2.16286e-05
2.12546e-09
1.24387e-12
1.13432e-18
2.32735e-18
9.21787e-14
7.81861e-09
1.7725e-05
0.000335586
0.000319611
4.3703e-05
3.85681e-09
6.47391e-12
1.05608e-18
2.97615e-18
3.94811e-14
1.98484e-08
3.71353e-05
0.000311998
0.000294661
6.14882e-05
6.67485e-09
8.35194e-12
3.31395e-17
5.40119e-18
1.43683e-14
4.9974e-09
5.15274e-05
0.000291662
0.000272888
7.08619e-05
2.17666e-08
1.27124e-11
2.6826e-16
1.24445e-17
1.59602e-14
2.35455e-09
5.99731e-05
0.000273006
0.000254308
7.38669e-05
7.80285e-09
2.92825e-11
3.31776e-15
6.13474e-17
5.98669e-14
1.93732e-09
6.26361e-05
0.000256467
0.000238653
7.07162e-05
6.51505e-09
3.01335e-11
1.48895e-14
2.62478e-16
3.43403e-13
3.4237e-09
5.96137e-05
0.00024203
0.000224957
6.49614e-05
1.85892e-08
7.86804e-11
6.77976e-13
1.87654e-15
2.4418e-12
1.16425e-09
5.44108e-05
0.000229706
0.000213216
7.34849e-05
4.76049e-08
6.13199e-11
1.88008e-12
7.76244e-15
6.46016e-12
8.10533e-10
4.84653e-05
0.000218688
0.000202715
7.98894e-05
8.61639e-08
3.71422e-10
9.78907e-10
1.84393e-14
4.1392e-11
1.07764e-09
4.38981e-05
0.00020932
0.000193155
7.81057e-05
1.18061e-07
5.30377e-10
1.53984e-11
1.1691e-13
3.42661e-11
8.50701e-10
3.99399e-05
0.000200538
0.000184787
9.11198e-05
2.35945e-07
1.13148e-09
4.09368e-12
6.36659e-14
2.46893e-10
1.15513e-08
3.78703e-05
0.000193325
0.000176584
8.73351e-05
7.21091e-07
1.81957e-09
1.37187e-11
1.80116e-13
1.52944e-10
5.63795e-08
3.58722e-05
0.000186019
0.00016908
9.53092e-05
1.86032e-06
8.66681e-09
3.54104e-11
1.0987e-13
4.92241e-10
1.50052e-07
3.49802e-05
0.000180466
0.000161573
9.75747e-05
4.90302e-06
5.08228e-08
1.27406e-09
6.28015e-12
4.79342e-10
2.58357e-07
3.31034e-05
0.000174121
0.000154003
0.000104635
1.16247e-05
4.08953e-07
1.33602e-08
7.62659e-10
9.02587e-10
3.3079e-07
3.14123e-05
0.000169828
0.000146167
0.000122088
1.97494e-05
1.4808e-06
6.76417e-08
5.14005e-09
1.02903e-09
3.48815e-07
2.81946e-05
0.000163821
0.000137885
0.000130821
3.00333e-05
3.65638e-06
3.5131e-07
2.00912e-08
3.54097e-09
3.25585e-07
2.48046e-05
0.000160347
0.000129033
0.000142751
5.9464e-05
7.81093e-06
8.48394e-07
9.9676e-08
9.77126e-09
2.56177e-07
2.03371e-05
0.000152782
0.000119086
0.000151564
8.02753e-05
1.84978e-05
3.00754e-06
3.4776e-07
6.60386e-08
1.93958e-07
1.56554e-05
0.000150749
0.000108298
0.000166518
0.000109018
2.83663e-05
5.80125e-06
1.07679e-06
5.84982e-07
3.57327e-07
1.1285e-05
0.000135034
9.54947e-05
0.000171648
0.000133527
4.97602e-05
1.43951e-05
3.21518e-06
5.74177e-07
1.59854e-07
6.82212e-06
0.000141734
0.00374883
4.84317e-05
3.7983e-05
3.79736e-05
3.79772e-05
3.79729e-05
3.79684e-05
3.7985e-05
4.83858e-05
0.00374117
0.00221126
1.23875e-06
2.24546e-07
2.24985e-07
2.18871e-07
2.15653e-07
2.17216e-07
2.25248e-07
1.23378e-06
0.00218464
0.00141741
3.52622e-07
6.31801e-09
2.95393e-09
3.16657e-09
2.68726e-09
2.72939e-09
5.19274e-09
3.49898e-07
0.00138839
0.000962532
4.79548e-07
1.18552e-09
3.42881e-12
6.39711e-12
3.18144e-12
3.47926e-12
2.02268e-10
4.643e-07
0.000927778
0.000702208
9.19467e-07
6.95283e-10
1.36001e-13
2.4362e-14
1.87801e-14
7.22806e-15
5.18756e-11
8.69344e-07
0.000665617
0.000569457
1.39554e-06
1.06831e-09
9.54398e-14
3.36298e-14
3.21673e-14
1.82502e-13
1.63434e-10
1.35064e-06
0.000531755
0.000489521
1.8589e-06
4.56534e-10
7.6005e-13
2.18193e-13
1.26971e-12
8.66561e-13
4.51833e-10
1.86095e-06
0.000455447
0.000429204
1.32814e-06
1.16794e-09
2.92266e-12
8.65328e-13
2.63613e-13
8.34704e-12
8.62023e-10
1.3222e-06
0.000403298
0.000385507
5.34233e-06
1.96523e-09
7.64613e-12
2.24049e-12
1.35114e-12
2.56333e-11
2.70626e-09
5.09067e-06
0.000366205
0.000350064
1.93668e-05
2.64159e-09
1.49323e-11
1.07987e-11
4.49785e-12
6.01547e-11
3.18544e-09
1.86528e-05
0.000337644
0.000320722
4.02538e-05
2.51326e-09
3.43509e-11
2.54961e-11
1.09138e-11
1.0592e-10
6.95658e-09
3.82944e-05
0.000313412
0.000295871
6.04829e-05
8.16915e-09
3.41555e-11
5.267e-11
7.92683e-12
1.62963e-10
8.37647e-09
5.46957e-05
0.000292629
0.000274094
7.46556e-05
1.48732e-08
4.20771e-11
9.34914e-11
1.23138e-11
1.32398e-09
1.07633e-08
6.51768e-05
0.000273757
0.000255336
8.45949e-05
3.34037e-08
3.46375e-11
3.54659e-11
2.76396e-11
6.11603e-10
4.2423e-09
6.85212e-05
0.000257386
0.000239259
8.93298e-05
3.76926e-08
1.86631e-10
2.02843e-11
5.47404e-11
8.03169e-10
2.78643e-09
6.59122e-05
0.000243
0.000225641
8.78833e-05
1.43468e-07
1.0046e-10
1.89328e-11
1.47487e-10
1.99864e-09
2.63545e-09
6.06915e-05
0.000230617
0.000213628
8.29328e-05
3.27965e-07
5.9613e-10
7.08694e-11
1.75632e-10
3.53022e-09
5.91234e-09
5.4712e-05
0.00021956
0.000203257
9.13321e-05
6.02835e-07
1.31779e-09
5.2251e-10
3.93924e-10
4.47923e-09
3.91928e-08
4.9647e-05
0.000210135
0.00019373
9.6442e-05
1.64736e-06
4.06548e-09
3.68412e-10
1.05277e-10
7.72929e-09
1.45842e-07
4.5121e-05
0.000201396
0.000185326
0.000103469
4.25504e-06
2.98566e-08
4.51151e-10
1.68869e-09
1.20766e-08
3.27796e-07
4.20453e-05
0.000194169
0.000177004
9.91731e-05
1.15821e-05
1.44184e-07
3.53344e-09
2.10474e-09
1.86359e-08
5.08872e-07
3.92151e-05
0.000186948
0.000169538
0.000117419
1.7231e-05
5.42281e-07
1.79454e-08
6.15827e-09
2.59148e-08
6.23518e-07
3.76433e-05
0.000181328
0.000162281
0.000121418
1.76733e-05
1.02796e-06
1.02784e-07
1.38629e-08
3.04934e-08
6.41405e-07
3.55544e-05
0.000175074
0.000154785
0.00012146
2.04923e-05
1.95826e-06
1.56592e-07
2.86461e-08
4.49777e-08
6.18391e-07
3.36881e-05
0.000170621
0.000146799
0.000127151
2.51655e-05
2.98159e-06
3.91613e-07
5.63983e-08
4.34585e-08
5.42481e-07
3.05415e-05
0.000164898
0.00013842
0.000132966
3.70699e-05
5.25091e-06
5.86488e-07
1.26422e-07
1.13939e-07
4.78062e-07
2.68958e-05
0.000161099
0.00012956
0.000143055
6.08851e-05
9.52231e-06
1.42375e-06
2.2303e-07
7.34306e-08
3.72659e-07
2.23354e-05
0.000153949
0.000119818
0.000151598
8.03517e-05
1.91586e-05
3.04327e-06
6.10924e-07
3.08413e-07
3.48426e-07
1.71007e-05
0.000152211
0.000109282
0.000164864
0.000109048
2.92744e-05
6.00877e-06
1.15504e-06
2.08701e-07
3.46322e-07
1.24821e-05
0.000135434
9.77045e-05
0.000173049
0.000131061
4.97474e-05
1.45712e-05
3.34122e-06
1.00924e-06
5.57625e-07
7.31511e-06
0.000142298
0.0037504
4.84757e-05
3.80031e-05
3.79811e-05
3.79858e-05
3.79858e-05
3.79811e-05
3.80033e-05
4.84291e-05
0.00374288
0.00221535
1.24884e-06
2.3084e-07
2.23233e-07
2.22577e-07
2.22547e-07
2.22822e-07
2.3089e-07
1.24022e-06
0.00218897
0.0014208
3.60271e-07
4.03409e-09
7.14433e-09
7.13616e-09
7.2464e-09
7.14245e-09
4.09885e-09
3.57101e-07
0.00139149
0.000967316
5.06484e-07
5.12925e-10
2.79962e-09
2.57914e-09
2.47496e-09
2.7184e-09
4.97447e-10
4.91096e-07
0.000931677
0.000710347
9.3787e-07
6.93486e-10
1.19745e-09
1.88262e-09
2.28953e-09
1.56287e-09
6.21129e-10
8.84952e-07
0.000672977
0.00057618
1.3372e-06
1.82632e-09
3.47111e-09
1.39777e-09
7.9309e-10
1.24975e-09
1.63314e-09
1.23773e-06
0.000539569
0.000493937
1.68939e-06
3.1949e-09
1.33556e-09
2.30205e-09
1.11999e-09
9.50409e-10
1.98388e-09
1.5445e-06
0.000462013
0.000432206
1.15385e-06
6.86515e-09
1.01127e-09
4.32715e-09
7.02035e-10
1.50407e-09
3.66612e-09
1.13296e-06
0.000407749
0.000386947
4.76237e-06
5.59807e-09
1.71851e-09
1.6574e-09
2.00602e-09
1.7511e-09
4.21151e-09
3.85965e-06
0.000368817
0.000351537
1.72313e-05
4.28576e-09
2.69582e-09
3.53438e-09
6.8954e-09
6.40804e-09
3.55797e-09
1.45315e-05
0.000339102
0.000321011
4.06632e-05
6.8955e-09
6.19565e-09
4.55466e-09
3.18101e-09
1.81883e-08
8.15179e-09
3.20202e-05
0.000314522
0.000295885
6.46155e-05
4.76699e-09
1.00798e-08
4.98201e-09
1.70488e-09
1.92083e-08
1.41274e-08
4.60627e-05
0.000293388
0.000274319
8.26613e-05
5.35231e-09
8.1505e-09
7.76351e-09
1.44008e-09
1.24165e-07
1.14263e-08
5.5247e-05
0.00027431
0.00025583
9.0617e-05
1.23602e-08
6.43932e-08
3.57613e-09
1.97286e-09
9.36327e-08
2.36557e-08
6.05173e-05
0.000257441
0.000239982
9.22294e-05
8.98243e-09
7.56147e-09
2.47628e-09
2.56846e-09
7.33732e-08
4.50844e-09
6.04573e-05
0.000242643
0.000226425
8.93872e-05
9.32018e-09
2.70021e-09
3.46744e-09
3.86279e-09
4.28324e-08
5.4604e-09
5.76358e-05
0.000230017
0.000214391
8.37272e-05
3.78386e-08
4.68666e-09
4.02613e-09
2.35464e-09
6.17472e-08
1.76656e-09
5.35686e-05
0.000218865
0.000203986
9.3171e-05
3.80529e-07
1.44412e-07
2.59479e-08
4.36961e-09
2.88948e-07
5.83197e-08
5.0133e-05
0.000209351
0.000194408
0.000100041
5.0836e-07
4.3162e-07
1.59673e-07
7.33048e-10
3.04255e-07
3.67543e-07
4.72963e-05
0.000200564
0.000185878
0.000103994
1.5572e-06
1.24938e-06
5.39176e-07
4.56757e-08
1.0451e-06
8.30923e-07
4.5766e-05
0.000193211
0.000177517
0.000101963
2.39492e-06
9.51462e-07
9.10238e-07
2.99051e-07
1.13814e-06
1.40315e-06
4.4289e-05
0.000186033
0.000169922
0.000119345
5.57434e-06
1.20146e-06
1.03347e-06
4.04803e-07
1.95707e-06
1.45464e-06
4.30454e-05
0.000180407
0.000162598
0.000127673
1.25954e-05
1.70939e-06
1.3258e-06
8.69713e-07
2.89111e-06
1.99093e-06
4.11047e-05
0.000174304
0.000154809
0.000122751
2.04269e-05
2.76734e-06
1.60761e-06
1.20634e-06
3.01897e-06
1.96238e-06
3.84183e-05
0.000170033
0.000146805
0.000131482
2.81522e-05
4.28829e-06
2.53942e-06
2.0876e-06
3.74787e-06
3.57026e-06
3.4937e-05
0.000164425
0.000138131
0.000137861
4.48003e-05
7.95554e-06
3.39146e-06
2.62358e-06
3.71486e-06
3.57363e-06
3.08384e-05
0.000160701
0.000128674
0.000148061
6.49817e-05
1.42645e-05
5.49531e-06
3.98715e-06
4.37768e-06
4.38414e-06
2.61259e-05
0.000154838
0.00011806
0.000160624
9.06817e-05
2.38992e-05
8.23771e-06
5.4552e-06
5.51208e-06
5.46749e-06
2.26251e-05
0.000148238
0.000106615
0.00017361
0.00011932
3.98266e-05
1.65754e-05
8.02308e-06
7.49801e-06
6.69028e-06
1.7511e-05
0.000142455
9.68274e-05
0.000189883
0.000156297
6.74281e-05
2.88157e-05
1.30553e-05
9.63392e-06
9.29409e-06
1.8148e-05
0.000125258
0.00375946
6.08269e-05
4.84316e-05
4.8389e-05
4.84008e-05
4.84007e-05
4.83877e-05
4.84321e-05
6.07771e-05
0.00375231
0.00221498
3.2395e-06
1.23917e-06
1.23478e-06
1.23294e-06
1.23327e-06
1.23169e-06
1.2414e-06
3.20883e-06
0.00219013
0.00139667
1.66583e-06
3.53835e-07
3.49352e-07
3.50516e-07
3.50472e-07
3.49757e-07
3.58048e-07
1.64873e-06
0.00136444
0.000962968
1.4504e-06
4.79084e-07
4.6159e-07
4.64536e-07
4.66244e-07
4.66169e-07
4.93608e-07
1.35119e-06
0.000915808
0.000740331
1.35643e-06
8.64984e-07
8.53894e-07
8.64288e-07
8.64938e-07
8.64869e-07
8.89201e-07
1.18324e-06
0.0006877
0.000603186
1.664e-06
1.26997e-06
1.3337e-06
1.33287e-06
1.34601e-06