/*--------------------------------*- C++ -*----------------------------------*\
| =========                 |                                                 |
| \\      /  F ield         | OpenFOAM: The Open Source CFD Toolbox           |
|  \\    /   O peration     | Version:  4.1                                   |
|   \\  /    A nd           | Web:      www.OpenFOAM.org                      |
|    \\/     M anipulation  |                                                 |
\*---------------------------------------------------------------------------*/
FoamFile
{
    version     2.0;
    format      ascii;
    class       volScalarField;
    location    "700";
    object      p;
}
// * * * * * * * * * * * * * * * * * * * * * * * * * * * * * * * * * * * * * //

dimensions      [0 2 -2 0 0 0 0];

internalField   nonuniform List<scalar> 
12000
(
0.0763011
0.0765818
0.0762466
0.0761257
0.0760878
0.0760863
0.0761213
0.0762396
0.0765724
0.0762889
0.0757351
0.0757215
0.0756584
0.0756603
0.0756466
0.075645
0.0756556
0.075651
0.0757116
0.0757224
0.0756166
0.0753814
0.075441
0.0754883
0.0754898
0.075488
0.0754829
0.0754326
0.0753699
0.075602
0.0755889
0.0753262
0.075407
0.0754334
0.0754328
0.0754305
0.0754267
0.0753966
0.0753124
0.0755714
0.0754945
0.075276
0.0753592
0.0753607
0.0753576
0.0753548
0.0753521
0.0753461
0.0752585
0.0754728
0.0753749
0.0752009
0.075283
0.0752719
0.0752713
0.0752678
0.0752611
0.075266
0.0751787
0.0753474
0.075277
0.0751365
0.0752123
0.0751941
0.0751966
0.0751922
0.0751805
0.0751903
0.0751078
0.0752418
0.075206
0.0750916
0.0751576
0.0751337
0.0751374
0.0751317
0.0751161
0.0751293
0.0750533
0.0751602
0.07515
0.0750555
0.0751122
0.075084
0.0750873
0.07508
0.0750614
0.075076
0.0750066
0.0750915
0.0751033
0.0750242
0.0750715
0.0750402
0.0750421
0.0750325
0.0750109
0.0750251
0.0749607
0.0750289
0.0750656
0.074998
0.0750352
0.0750015
0.0750007
0.0749884
0.0749635
0.0749765
0.0749196
0.0749727
0.0750363
0.0749753
0.075004
0.0749676
0.0749627
0.0749467
0.0749185
0.0749283
0.0748802
0.0749202
0.0750154
0.0749584
0.074978
0.0749378
0.0749272
0.0749064
0.0748741
0.0748788
0.0748337
0.0748652
0.075003
0.0749478
0.0749567
0.0749116
0.0748937
0.0748666
0.0748288
0.0748265
0.0747808
0.0748053
0.0749989
0.0749427
0.0749411
0.0748893
0.074862
0.0748266
0.0747811
0.0747702
0.0747218
0.0747396
0.0750052
0.0749455
0.0749324
0.0748714
0.074832
0.0747857
0.0747302
0.0747085
0.0746553
0.0746666
0.075025
0.0749594
0.0749317
0.0748583
0.0748037
0.0747433
0.0746748
0.0746397
0.0745792
0.0745833
0.0750609
0.0749871
0.0749408
0.0748509
0.0747771
0.0746984
0.074613
0.0745612
0.0744901
0.0744863
0.0751155
0.0750317
0.0749615
0.07485
0.0747519
0.0746499
0.0745423
0.0744694
0.0743837
0.0743703
0.0751908
0.0750966
0.0749959
0.0748567
0.074728
0.074596
0.0744595
0.0743594
0.0742537
0.0742284
0.075288
0.0751843
0.075046
0.0748718
0.0747051
0.0745349
0.0743605
0.0742246
0.0740913
0.0740507
0.0754052
0.0752963
0.0751137
0.0748965
0.0746832
0.0744644
0.0742402
0.0740563
0.0738846
0.0738231
0.0755362
0.0754296
0.0752003
0.0749324
0.0746626
0.0743824
0.0740923
0.0738428
0.0736159
0.0735243
0.0756681
0.0755748
0.0753064
0.0749823
0.074645
0.074287
0.073909
0.0735674
0.0732586
0.0731211
0.0757822
0.0757129
0.07543
0.0750514
0.0746344
0.0741775
0.0736811
0.0732067
0.0727707
0.072557
0.0758599
0.0758216
0.0755683
0.075149
0.0746385
0.0740547
0.0733968
0.0727265
0.0720824
0.0717309
0.0758982
0.0758895
0.0757159
0.0752822
0.0746671
0.0739227
0.0730438
0.0720787
0.071075
0.0704288
0.0759269
0.0759594
0.0758742
0.0754437
0.0747216
0.0737809
0.0725988
0.0711804
0.0695428
0.0681821
0.0759409
0.0760059
0.0759613
0.0755556
0.0747662
0.0736246
0.0720589
0.0699363
0.0671917
0.0635559
0.0759092
0.0759559
0.0758553
0.0754439
0.0746443
0.0733229
0.0712936
0.0680043
0.0636266
0.0528308
0.0765829
0.0766247
0.0762952
0.0761763
0.0761362
0.0761347
0.0761719
0.0762884
0.0766157
0.0765701
0.0757225
0.0756804
0.0756468
0.0756533
0.0756381
0.0756365
0.0756487
0.0756396
0.0756709
0.0757097
0.0753827
0.0751716
0.075259
0.0753135
0.0753143
0.0753125
0.0753082
0.0752508
0.0751606
0.0753679
0.0753279
0.0750757
0.0751801
0.0752066
0.0752047
0.0752026
0.0752002
0.0751701
0.0750622
0.0753103
0.0752783
0.0750603
0.0751669
0.0751619
0.0751579
0.0751551
0.0751538
0.0751543
0.0750435
0.0752564
0.0752039
0.075024
0.0751271
0.0751073
0.0751081
0.0751047
0.0750968
0.0751109
0.0750024
0.0751764
0.0751403
0.0749883
0.0750807
0.0750533
0.0750595
0.0750552
0.0750398
0.0750599
0.0749608
0.075105
0.0750965
0.0749666
0.0750453
0.0750121
0.0750206
0.0750151
0.074995
0.075019
0.0749316
0.0750499
0.0750618
0.0749524
0.0750184
0.0749808
0.0749889
0.074982
0.0749588
0.0749844
0.0749071
0.0750022
0.0750325
0.0749384
0.074993
0.0749531
0.0749595
0.0749506
0.0749247
0.0749494
0.0748801
0.0749549
0.0750091
0.0749249
0.0749681
0.0749271
0.0749305
0.0749187
0.0748897
0.0749093
0.0748478
0.0749123
0.0749897
0.0749142
0.0749465
0.0749033
0.0749021
0.0748865
0.0748537
0.0748666
0.0748129
0.0748712
0.0749769
0.0749061
0.0749279
0.0748821
0.0748748
0.0748544
0.0748175
0.0748245
0.0747748
0.0748227
0.0749712
0.0749018
0.074913
0.0748636
0.0748485
0.0748217
0.0747797
0.0747798
0.0747307
0.0747677
0.0749719
0.0749034
0.0749035
0.0748481
0.074823
0.0747879
0.0747389
0.0747302
0.0746789
0.0747064
0.0749816
0.0749123
0.0748998
0.0748358
0.0747981
0.0747522
0.074694
0.0746743
0.074618
0.0746368
0.0750035
0.0749307
0.0749031
0.0748271
0.0747736
0.0747138
0.0746432
0.0746101
0.0745461
0.0745559
0.0750403
0.074961
0.0749147
0.0748227
0.0747494
0.0746716
0.0745846
0.0745346
0.0744598
0.0744598
0.0750942
0.0750061
0.0749361
0.0748231
0.0747252
0.0746241
0.0745155
0.074444
0.0743544
0.0743434
0.075167
0.0750686
0.0749692
0.0748291
0.0747003
0.0745695
0.0744324
0.0743333
0.0742234
0.0741994
0.0752595
0.075151
0.0750153
0.074841
0.0746742
0.0745053
0.0743308
0.0741954
0.0740577
0.0740172
0.0753706
0.0752544
0.0750759
0.0748597
0.0746461
0.0744287
0.0742048
0.0740209
0.0738441
0.0737818
0.0754959
0.0753774
0.0751521
0.074886
0.0746158
0.0743367
0.0740471
0.0737967
0.0735635
0.0734703
0.0756256
0.0755145
0.0752447
0.074922
0.0745839
0.0742263
0.0738483
0.0735043
0.0731869
0.0730465
0.0757446
0.0756536
0.0753535
0.0749713
0.0745531
0.0740956
0.0735975
0.0731175
0.0726679
0.072449
0.0758363
0.0757772
0.0754774
0.0750403
0.0745285
0.073944
0.0732811
0.0725987
0.0719297
0.0715674
0.075891
0.0758674
0.0756107
0.0751357
0.074519
0.0737752
0.0728855
0.0718957
0.0708414
0.070167
0.0759168
0.0759278
0.0757418
0.0752503
0.0745263
0.0735894
0.072389
0.0709253
0.0691803
0.0677399
0.0759095
0.0759406
0.0758066
0.0753296
0.0745317
0.0733899
0.0717902
0.0695866
0.066628
0.0627394
0.0758829
0.0758583
0.0756624
0.0752002
0.0743977
0.0730836
0.0710272
0.0675905
0.0629198
0.0513253
0.0762488
0.0762964
0.0759914
0.0758685
0.075827
0.0758255
0.0758642
0.0759846
0.0762875
0.0762357
0.0756606
0.075648
0.0756209
0.0756227
0.0756076
0.075606
0.0756182
0.0756138
0.0756385
0.0756477
0.0754436
0.0752604
0.0753488
0.0754021
0.0754033
0.0754015
0.0753968
0.0753406
0.0752495
0.075429
0.0754103
0.0751818
0.0752842
0.0753099
0.0753076
0.0753054
0.0753035
0.0752743
0.0751685
0.075393
0.0753635
0.075169
0.0752747
0.0752681
0.0752633
0.0752606
0.0752601
0.0752625
0.0751525
0.0753423
0.0752884
0.0751298
0.0752345
0.0752136
0.075215
0.0752116
0.0752034
0.0752188
0.0751087
0.0752619
0.075219
0.0750841
0.0751788
0.0751504
0.0751588
0.0751546
0.0751372
0.0751583
0.075057
0.0751856
0.075166
0.0750498
0.0751308
0.0750958
0.0751072
0.0751018
0.0750788
0.0751042
0.0750151
0.0751233
0.0751229
0.0750246
0.0750925
0.0750524
0.0750637
0.0750567
0.0750303
0.0750577
0.0749791
0.0750682
0.0750861
0.075001
0.0750575
0.0750149
0.0750244
0.0750155
0.0749861
0.0750125
0.0749427
0.0750145
0.0750552
0.0749781
0.0750238
0.0749801
0.0749867
0.0749751
0.0749424
0.0749643
0.0749007
0.0749622
0.0750303
0.0749592
0.0749937
0.0749485
0.0749506
0.0749351
0.0748989
0.0749149
0.0748554
0.0749099
0.075012
0.0749441
0.0749681
0.0749206
0.0749165
0.0748962
0.0748561
0.074866
0.0748101
0.0748551
0.0750006
0.0749338
0.0749476
0.0748966
0.0748844
0.0748579
0.074813
0.0748154
0.074761
0.0747964
0.074997
0.0749304
0.074933
0.0748763
0.0748539
0.0748192
0.0747679
0.0747611
0.0747056
0.0747319
0.0750031
0.074935
0.0749246
0.0748596
0.0748245
0.0747791
0.074719
0.0747011
0.0746418
0.0746591
0.0750213
0.0749491
0.0749234
0.0748467
0.0747957
0.0747365
0.0746646
0.0746331
0.0745672
0.0745751
0.0750539
0.0749748
0.0749304
0.0748378
0.0747672
0.0746901
0.0746023
0.0745538
0.0744781
0.074476
0.0751031
0.0750143
0.0749465
0.0748333
0.0747382
0.0746382
0.0745292
0.0744593
0.0743695
0.0743564
0.0751701
0.0750698
0.0749733
0.0748335
0.074708
0.0745786
0.0744415
0.0743443
0.0742347
0.0742086
0.0752552
0.0751434
0.0750116
0.0748385
0.0746754
0.0745084
0.0743344
0.0742013
0.0740641
0.0740216
0.075357
0.0752358
0.0750626
0.0748484
0.0746392
0.0744245
0.0742015
0.0740205
0.073844
0.0737796
0.0754712
0.0753458
0.0751265
0.0748633
0.0745984
0.0743228
0.0740347
0.0737878
0.0735545
0.0734587
0.0755896
0.0754687
0.0752034
0.0748839
0.0745523
0.0741995
0.0738237
0.0734835
0.0731649
0.0730211
0.0757012
0.0755954
0.0752925
0.0749122
0.0745022
0.0740516
0.0735564
0.0730803
0.0726269
0.0724024
0.0757947
0.0757132
0.0753916
0.0749522
0.074452
0.0738783
0.0732193
0.0725394
0.0718605
0.0714877
0.0758616
0.0758095
0.0754979
0.0750105
0.074412
0.0736863
0.0728027
0.0718113
0.0707323
0.0700348
0.0759014
0.0758773
0.0756044
0.0750921
0.0743981
0.0734928
0.0723024
0.070829
0.0690235
0.0675263
0.0759202
0.0759135
0.0756929
0.0752043
0.0744543
0.0733628
0.0717816
0.0695594
0.06647
0.0624182
0.0759298
0.0759081
0.0757284
0.0753405
0.0746313
0.073384
0.0713529
0.0678879
0.0630011
0.0509422
0.0761292
0.0761788
0.0758698
0.0757464
0.0757048
0.0757033
0.0757422
0.0758631
0.0761699
0.076116
0.0756639
0.0756558
0.0756241
0.0756267
0.0756116
0.07561
0.0756221
0.075617
0.0756464
0.0756509
0.0754925
0.0753163
0.0754036
0.0754596
0.0754611
0.0754593
0.0754544
0.0753954
0.0753055
0.0754779
0.0754385
0.0752101
0.0753117
0.0753398
0.0753373
0.0753351
0.0753335
0.0753018
0.0751969
0.0754213
0.0753672
0.0751662
0.0752703
0.0752644
0.0752589
0.0752562
0.0752565
0.0752579
0.0751497
0.0753463
0.0752802
0.0751127
0.0752164
0.0751951
0.0751958
0.0751925
0.075185
0.0752007
0.0750919
0.0752541
0.0752049
0.0750603
0.075154
0.0751249
0.075133
0.0751288
0.0751118
0.0751338
0.0750336
0.0751715
0.0751477
0.0750213
0.0751005
0.0750643
0.0750757
0.0750704
0.0750474
0.0750742
0.0749867
0.0751046
0.0751023
0.074993
0.0750587
0.0750171
0.0750284
0.0750215
0.074995
0.0750243
0.0749479
0.0750461
0.0750643
0.0749692
0.0750231
0.0749789
0.0749885
0.0749795
0.07495
0.0749784
0.0749106
0.0749907
0.0750334
0.0749481
0.074991
0.0749456
0.0749522
0.0749405
0.0749078
0.0749322
0.0748712
0.0749376
0.0750089
0.0749308
0.0749629
0.0749163
0.0749181
0.0749029
0.0748669
0.0748857
0.0748298
0.0748853
0.0749912
0.074918
0.0749397
0.074891
0.0748864
0.0748664
0.0748267
0.0748391
0.0747862
0.0748316
0.0749808
0.0749103
0.0749216
0.0748696
0.0748568
0.0748306
0.0747862
0.0747907
0.0747386
0.0747745
0.0749785
0.074909
0.074909
0.0748518
0.0748287
0.0747944
0.0747435
0.0747385
0.0746847
0.0747114
0.074986
0.0749152
0.0749024
0.0748373
0.0748015
0.0747566
0.0746969
0.0746806
0.0746225
0.0746399
0.0750053
0.0749305
0.0749024
0.0748262
0.0747746
0.074716
0.0746444
0.0746142
0.0745492
0.074557
0.0750384
0.0749568
0.0749098
0.0748185
0.0747474
0.074671
0.0745836
0.0745362
0.074461
0.0744588
0.075087
0.074996
0.0749257
0.0748143
0.074719
0.0746199
0.0745114
0.0744424
0.0743528
0.0743394
0.0751522
0.0750502
0.0749511
0.0748138
0.0746884
0.0745601
0.0744238
0.0743273
0.0742176
0.0741908
0.0752343
0.0751211
0.0749869
0.0748168
0.0746544
0.0744888
0.0743157
0.0741833
0.0740455
0.074002
0.0753317
0.0752093
0.0750339
0.0748229
0.0746152
0.0744022
0.0741805
0.0740001
0.0738226
0.0737568
0.0754409
0.0753139
0.0750922
0.0748322
0.0745695
0.0742962
0.0740097
0.0737633
0.0735285
0.0734307
0.0755551
0.0754312
0.0751621
0.0748452
0.0745167
0.0741669
0.0737929
0.0734533
0.0731321
0.0729853
0.0756661
0.0755543
0.0752434
0.074864
0.0744582
0.0740118
0.0735191
0.073043
0.0725853
0.072356
0.0757651
0.0756732
0.075336
0.0748944
0.0744005
0.0738331
0.0731774
0.0724964
0.0718095
0.0714284
0.075845
0.0757786
0.0754408
0.0749487
0.0743607
0.0736456
0.0727666
0.0717722
0.0706781
0.0699651
0.0759041
0.0758637
0.0755584
0.0750461
0.0743718
0.0734837
0.0723004
0.0708218
0.0689895
0.0674626
0.0759468
0.0759267
0.0756913
0.0752255
0.0745113
0.073445
0.0718748
0.0696487
0.0665243
0.0624266
0.0759752
0.0759602
0.0758364
0.0755256
0.0748689
0.0736452
0.0716248
0.0681629
0.0632519
0.0511815
0.0760928
0.0761402
0.0758298
0.0757063
0.0756647
0.0756632
0.0757021
0.0758232
0.0761314
0.0760796
0.0756517
0.0756422
0.0756105
0.0756132
0.0755981
0.0755965
0.0756087
0.0756034
0.0756327
0.0756388
0.0754958
0.075319
0.0754066
0.0754628
0.0754643
0.0754625
0.0754577
0.0753985
0.0753082
0.0754813
0.0754401
0.0752104
0.0753115
0.0753394
0.0753366
0.0753345
0.0753331
0.0753017
0.0751972
0.075423
0.075367
0.0751649
0.0752681
0.0752615
0.0752556
0.0752529
0.0752537
0.0752559
0.0751485
0.0753461
0.0752833
0.0751171
0.0752212
0.0751993
0.0751996
0.0751963
0.0751892
0.0752056
0.0750964
0.0752572
0.0752121
0.075071
0.0751669
0.0751375
0.0751457
0.0751415
0.0751245
0.0751466
0.0750444
0.0751787
0.0751576
0.0750356
0.0751178
0.0750816
0.0750935
0.0750881
0.0750647
0.0750914
0.0750011
0.0751143
0.0751136
0.0750087
0.0750776
0.0750362
0.0750483
0.0750414
0.0750141
0.0750432
0.0749637
0.075057
0.0750763
0.0749854
0.0750427
0.0749986
0.0750093
0.0750003
0.0749698
0.074998
0.0749268
0.0750024
0.0750454
0.0749644
0.0750106
0.0749654
0.0749731
0.0749615
0.0749277
0.0749521
0.0748877
0.0749497
0.0750207
0.0749464
0.074982
0.0749354
0.0749385
0.0749233
0.0748862
0.0749052
0.074846
0.0748975
0.0750023
0.0749326
0.0749577
0.0749088
0.0749055
0.0748856
0.0748447
0.0748574
0.0748013
0.0748437
0.0749909
0.0749239
0.0749382
0.0748858
0.0748743
0.0748482
0.0748025
0.0748074
0.0747522
0.074786
0.0749877
0.0749211
0.0749239
0.0748662
0.0748444
0.0748102
0.0747581
0.0747535
0.0746971
0.0747222
0.0749942
0.0749256
0.0749154
0.0748498
0.0748153
0.0747706
0.0747097
0.0746938
0.0746336
0.0746499
0.0750123
0.074939
0.0749132
0.0748366
0.0747864
0.074728
0.0746554
0.0746257
0.0745589
0.0745661
0.0750439
0.0749631
0.0749184
0.0748268
0.074757
0.0746811
0.0745928
0.0745459
0.0744694
0.0744668
0.0750905
0.075
0.0749319
0.0748204
0.0747264
0.0746278
0.0745186
0.0744503
0.0743597
0.0743461
0.0751533
0.0750515
0.0749546
0.0748173
0.0746934
0.0745657
0.074429
0.0743332
0.0742228
0.0741961
0.0752325
0.0751193
0.0749872
0.0748173
0.0746564
0.0744917
0.0743185
0.074187
0.0740488
0.0740055
0.0753268
0.0752041
0.0750305
0.0748201
0.074614
0.074402
0.0741804
0.0740011
0.0738235
0.073758
0.075433
0.0753052
0.0750847
0.0748254
0.0745644
0.0742924
0.0740062
0.0737611
0.0735263
0.0734289
0.0755452
0.0754197
0.0751504
0.0748338
0.0745072
0.074159
0.0737857
0.0734474
0.0731263
0.0729799
0.0756562
0.0755417
0.075228
0.0748482
0.0744444
0.0740002
0.0735084
0.0730335
0.0725756
0.0723464
0.0757583
0.0756626
0.0753186
0.0748754
0.0743841
0.0738197
0.0731653
0.0724852
0.0717974
0.0714156
0.0758444
0.0757736
0.075425
0.0749303
0.0743467
0.0736364
0.0727596
0.0717658
0.0706694
0.0699541
0.0759111
0.0758668
0.0755502
0.0750377
0.0743718
0.0734917
0.0723125
0.0708345
0.0689984
0.0674673
0.0759598
0.0759367
0.0757002
0.0752454
0.0745474
0.0734948
0.0719335
0.0697111
0.0665847
0.0624804
0.0759917
0.0759773
0.0758795
0.0756043
0.0749762
0.0737741
0.0717706
0.0683214
0.0634157
0.051344
0.0760929
0.0761403
0.0758299
0.0757064
0.0756648
0.0756633
0.0757022
0.0758233
0.0761315
0.0760798
0.0756518
0.0756423
0.0756105
0.0756132
0.0755982
0.0755966
0.0756088
0.0756035
0.0756329
0.075639
0.0754958
0.075319
0.0754066
0.0754629
0.0754644
0.0754626
0.0754578
0.0753986
0.0753083
0.0754815
0.0754402
0.0752104
0.0753115
0.0753394
0.0753367
0.0753346
0.0753332
0.0753018
0.0751973
0.0754233
0.0753671
0.0751649
0.0752681
0.0752616
0.0752556
0.075253
0.0752537
0.075256
0.0751486
0.0753463
0.0752834
0.0751171
0.0752212
0.0751993
0.0751997
0.0751964
0.0751893
0.0752056
0.0750964
0.0752573
0.0752121
0.0750711
0.0751669
0.0751376
0.0751458
0.0751416
0.0751245
0.0751467
0.0750445
0.0751788
0.0751576
0.0750357
0.0751178
0.0750816
0.0750935
0.0750881
0.0750647
0.0750914
0.0750011
0.0751143
0.0751135
0.0750088
0.0750775
0.0750361
0.0750483
0.0750413
0.075014
0.0750431
0.0749635
0.0750572
0.0750762
0.0749855
0.0750426
0.0749985
0.0750092
0.0750003
0.0749697
0.0749978
0.0749265
0.0750027
0.0750453
0.0749644
0.0750107
0.0749653
0.0749731
0.0749615
0.0749277
0.0749521
0.0748875
0.0749497
0.0750206
0.0749464
0.074982
0.0749353
0.0749385
0.0749233
0.0748861
0.0749054
0.0748459
0.0748974
0.0750022
0.0749326
0.0749577
0.0749088
0.0749055
0.0748855
0.0748446
0.0748576
0.0748012
0.0748435
0.0749908
0.0749238
0.0749383
0.0748858
0.0748742
0.0748481
0.0748024
0.0748076
0.0747522
0.0747856
0.0749876
0.074921
0.0749239
0.0748661
0.0748443
0.0748101
0.074758
0.0747537
0.074697
0.0747217
0.0749941
0.0749255
0.0749153
0.0748497
0.0748152
0.0747705
0.0747096
0.074694
0.0746336
0.0746493
0.0750122
0.0749389
0.0749132
0.0748365
0.0747862
0.0747279
0.0746553
0.0746259
0.074559
0.0745656
0.0750437
0.0749631
0.0749184
0.0748266
0.0747569
0.074681
0.0745926
0.0745462
0.0744695
0.0744664
0.0750903
0.075
0.0749319
0.0748202
0.0747263
0.0746277
0.0745185
0.0744506
0.0743598
0.0743458
0.075153
0.0750514
0.0749546
0.0748172
0.0746933
0.0745657
0.0744289
0.0743335
0.074223
0.074196
0.0752321
0.0751191
0.0749872
0.0748172
0.0746564
0.0744917
0.0743185
0.0741872
0.074049
0.0740055
0.0753263
0.0752038
0.0750304
0.0748199
0.0746139
0.074402
0.0741805
0.0740013
0.0738237
0.0737581
0.0754323
0.0753048
0.0750845
0.0748252
0.0745643
0.0742924
0.0740063
0.0737613
0.0735266
0.0734292
0.0755443
0.075419
0.0751501
0.0748336
0.0745071
0.074159
0.0737858
0.0734476
0.0731266
0.0729803
0.0756552
0.0755408
0.0752275
0.0748479
0.0744443
0.0740002
0.0735085
0.0730338
0.072576
0.0723469
0.0757573
0.0756615
0.0753178
0.0748749
0.0743838
0.0738196
0.0731654
0.0724856
0.0717979
0.0714163
0.0758434
0.0757724
0.0754238
0.0749295
0.0743462
0.0736362
0.0727596
0.0717662
0.0706702
0.0699554
0.0759102
0.0758657
0.075549
0.0750367
0.0743711
0.0734913
0.0723124
0.0708352
0.0690001
0.0674703
0.075959
0.0759359
0.0756991
0.0752443
0.0745465
0.0734943
0.0719334
0.0697123
0.0665885
0.0624906
0.0759913
0.0759767
0.0758788
0.0756037
0.0749757
0.0737738
0.0717709
0.0683243
0.0634235
0.0513736
0.0761294
0.076179
0.07587
0.0757467
0.0757051
0.0757037
0.0757425
0.0758635
0.0761703
0.0761165
0.075664
0.075656
0.0756243
0.0756269
0.0756118
0.0756103
0.0756225
0.0756173
0.0756467
0.0756514
0.0754927
0.0753165
0.0754038
0.0754598
0.0754613
0.0754595
0.0754547
0.0753958
0.0753058
0.0754784
0.0754388
0.0752102
0.0753118
0.07534
0.0753375
0.0753353
0.0753338
0.0753021
0.0751971
0.0754219
0.0753676
0.0751662
0.0752703
0.0752645
0.0752591
0.0752564
0.0752568
0.0752582
0.07515
0.0753468
0.0752805
0.0751128
0.0752164
0.0751952
0.075196
0.0751927
0.0751852
0.0752009
0.0750922
0.0752545
0.075205
0.0750604
0.0751542
0.075125
0.0751332
0.075129
0.075112
0.075134
0.0750338
0.0751718
0.0751476
0.0750215
0.0751007
0.0750643
0.0750758
0.0750704
0.0750474
0.0750742
0.0749867
0.0751048
0.0751023
0.074993
0.0750586
0.075017
0.0750284
0.0750215
0.0749948
0.075024
0.0749475
0.0750463
0.0750641
0.0749691
0.075023
0.0749788
0.0749885
0.0749795
0.0749498
0.0749779
0.0749097
0.0749908
0.0750326
0.0749482
0.0749912
0.0749456
0.0749522
0.0749404
0.0749077
0.0749322
0.0748707
0.0749372
0.0750084
0.0749308
0.0749631
0.0749164
0.0749182
0.0749028
0.0748669
0.0748862
0.07483
0.0748843
0.0749909
0.074918
0.0749398
0.0748912
0.0748865
0.0748664
0.0748267
0.0748394
0.0747864
0.0748303
0.0749805
0.0749105
0.0749218
0.0748698
0.0748569
0.0748306
0.074786
0.0747907
0.0747383
0.074773
0.0749784
0.0749092
0.0749091
0.0748519
0.0748287
0.0747943
0.0747433
0.0747385
0.0746843
0.07471
0.0749861
0.0749153
0.0749024
0.0748373
0.0748014
0.0747565
0.0746967
0.0746804
0.0746222
0.0746388
0.0750055
0.0749306
0.0749022
0.0748261
0.0747745
0.0747159
0.0746442
0.074614
0.074549
0.0745563
0.0750385
0.0749567
0.0749096
0.0748183
0.0747472
0.074671
0.0745834
0.074536
0.074461
0.0744584
0.0750868
0.0749959
0.0749255
0.0748142
0.0747189
0.0746199
0.0745113
0.0744423
0.0743529
0.0743393
0.0751518
0.0750499
0.0749509
0.0748136
0.0746884
0.0745602
0.0744238
0.0743273
0.0742178
0.0741911
0.0752336
0.0751206
0.0749866
0.0748165
0.0746543
0.0744889
0.0743159
0.0741834
0.0740459
0.0740027
0.0753306
0.0752085
0.0750334
0.0748227
0.0746152
0.0744024
0.0741808
0.0740003
0.0738232
0.0737578
0.0754392
0.0753127
0.0750915
0.0748319
0.0745695
0.0742965
0.0740102
0.0737637
0.0735293
0.0734321
0.0755528
0.0754295
0.0751611
0.0748447
0.0745166
0.0741672
0.0737936
0.0734539
0.0731331
0.0729871
0.0756632
0.0755518
0.075242
0.0748632
0.074458
0.0740121
0.0735198
0.0730439
0.0725865
0.0723581
0.0757617
0.07567
0.0753339
0.0748933
0.0744
0.0738332
0.0731781
0.0724974
0.0718111
0.0714311
0.0758415
0.0757749
0.0754379
0.0749468
0.0743597
0.0736451
0.072767
0.0717735
0.0706805
0.0699691
0.0759008
0.07586
0.0755546
0.0750432
0.0743698
0.0734823
0.0723001
0.0708232
0.0689937
0.0674701
0.075944
0.0759233
0.0756869
0.0752213
0.0745076
0.073442
0.0718735
0.0696506
0.0665321
0.0624516
0.0759731
0.0759572
0.0758317
0.0755203
0.0748634
0.0736404
0.0716222
0.068167
0.063268
0.0512659
0.0762491
0.0762968
0.0759918
0.075869
0.0758276
0.0758261
0.0758648
0.0759853
0.0762882
0.0762364
0.0756609
0.0756483
0.0756213
0.0756231
0.075608
0.0756065
0.0756187
0.0756143
0.075639
0.0756484
0.075444
0.0752606
0.0753491
0.0754024
0.0754037
0.0754019
0.0753973
0.075341
0.0752499
0.0754298
0.0754106
0.0751819
0.0752844
0.0753102
0.0753079
0.0753057
0.0753039
0.0752746
0.0751688
0.0753938
0.0753636
0.0751691
0.0752749
0.0752683
0.0752636
0.0752609
0.0752604
0.0752626
0.0751528
0.0753431
0.0752883
0.0751299
0.0752348
0.0752138
0.0752152
0.0752118
0.0752037
0.0752192
0.0751092
0.0752625
0.0752187
0.0750845
0.0751791
0.0751506
0.0751589
0.0751547
0.0751375
0.0751588
0.0750576
0.0751861
0.0751657
0.0750508
0.075131
0.0750958
0.0751072
0.0751018
0.0750788
0.0751042
0.075015
0.0751241
0.0751235
0.0750241
0.0750918
0.0750522
0.0750635
0.0750566
0.0750299
0.0750569
0.0749779
0.0750691
0.0750866
0.0749996
0.0750564
0.0750145
0.0750242
0.0750152
0.0749855
0.0750112
0.0749401
0.0750149
0.0750549
0.0749776
0.0750234
0.0749798
0.0749865
0.0749747
0.074942
0.0749645
0.0748999
0.0749609
0.0750295
0.0749583
0.0749935
0.0749483
0.0749502
0.0749348
0.0748989
0.0749166
0.0748579
0.0749071
0.0750108
0.0749433
0.0749681
0.0749206
0.0749162
0.074896
0.0748561
0.0748673
0.0748121
0.0748522
0.0749993
0.0749338
0.0749478
0.0748967
0.0748842
0.0748577
0.0748128
0.074816
0.0747615
0.0747938
0.074996
0.0749307
0.0749332
0.0748763
0.0748537
0.0748191
0.0747676
0.0747615
0.0747057
0.0747297
0.0750026
0.0749353
0.0749248
0.0748596
0.0748243
0.0747791
0.0747188
0.0747016
0.0746422
0.0746575
0.0750213
0.0749494
0.0749235
0.0748466
0.0747956
0.0747366
0.0746644
0.0746336
0.0745678
0.0745742
0.075054
0.074975
0.0749303
0.0748377
0.0747672
0.0746903
0.0746022
0.0745544
0.0744789
0.0744758
0.075103
0.0750143
0.0749464
0.0748332
0.0747383
0.0746385
0.0745292
0.07446
0.0743705
0.0743569
0.0751696
0.0750696
0.0749731
0.0748334
0.0747081
0.074579
0.0744418
0.074345
0.0742359
0.0742096
0.0752543
0.0751428
0.0750113
0.0748383
0.0746756
0.074509
0.0743349
0.0742022
0.0740654
0.0740232
0.0753555
0.0752348
0.075062
0.0748481
0.0746394
0.0744251
0.0742023
0.0740216
0.0738456
0.0737818
0.0754689
0.0753441
0.0751257
0.0748629
0.0745986
0.0743236
0.0740358
0.0737891
0.0735563
0.0734614
0.0755863
0.0754662
0.0752022
0.0748834
0.0745525
0.0742004
0.073825
0.0734852
0.0731671
0.0730243
0.0756972
0.075592
0.0752905
0.0749114
0.0745023
0.0740526
0.0735581
0.0730825
0.0726296
0.0724062
0.0757901
0.0757088
0.0753886
0.0749508
0.0744518
0.073879
0.0732211
0.072542
0.0718639
0.0714924
0.0758564
0.0758043
0.0754938
0.075008
0.0744108
0.0736863
0.0728041
0.0718142
0.0707366
0.070041
0.0758958
0.0758715
0.0755987
0.0750875
0.0743948
0.0734906
0.0723022
0.0708315
0.069029
0.0675356
0.0759145
0.0759068
0.0756846
0.0751959
0.0744466
0.0733561
0.0717774
0.0695596
0.0664763
0.0624353
0.0759245
0.0759003
0.0757167
0.0753269
0.0746167
0.07337
0.0713419
0.0678838
0.0630068
0.0509779
0.0765831
0.0766254
0.0762961
0.0761772
0.0761372
0.0761358
0.076173
0.0762896
0.076617
0.0765709
0.0757228
0.0756809
0.0756473
0.0756539
0.0756387
0.0756372
0.0756495
0.0756404
0.0756717
0.0757104
0.0753829
0.075172
0.0752594
0.0753139
0.0753148
0.0753131
0.0753088
0.0752514
0.0751612
0.0753689
0.0753282
0.0750759
0.0751804
0.075207
0.0752052
0.0752031
0.0752008
0.0751706
0.0750628
0.0753116
0.0752782
0.0750607
0.0751673
0.0751623
0.0751583
0.0751556
0.0751543
0.0751549
0.0750442
0.0752577
0.0752036
0.0750243
0.0751276
0.0751077
0.0751086
0.0751052
0.0750975
0.0751118
0.0750032
0.0751777
0.0751397
0.074989
0.0750814
0.0750537
0.0750599
0.0750557
0.0750405
0.0750608
0.0749614
0.0751069
0.0750948
0.0749678
0.0750464
0.0750126
0.075021
0.0750155
0.0749953
0.0750193
0.0749317
0.0750532
0.0750622
0.0749526
0.0750182
0.074981
0.0749892
0.0749821
0.0749586
0.0749834
0.0749063
0.0750069
0.0750347
0.0749383
0.0749919
0.074953
0.0749596
0.0749504
0.0749239
0.074947
0.0748783
0.0749608
0.0750092
0.0749249
0.0749677
0.0749269
0.0749304
0.0749184
0.0748889
0.0749086
0.0748465
0.0749132
0.0749893
0.0749131
0.0749457
0.0749031
0.0749019
0.0748863
0.0748535
0.0748689
0.0748118
0.0748638
0.0749764
0.0749047
0.074927
0.0748819
0.0748745
0.074854
0.0748171
0.0748264
0.0747726
0.0748136
0.0749698
0.0749011
0.0749127
0.0748634
0.0748481
0.0748213
0.074779
0.0747804
0.0747277
0.0747608
0.0749709
0.0749031
0.0749033
0.0748478
0.0748225
0.0747875
0.0747382
0.0747304
0.0746763
0.0747014
0.0749816
0.0749123
0.0748997
0.0748355
0.0747977
0.0747519
0.0746934
0.0746747
0.0746162
0.0746331
0.0750042
0.0749309
0.074903
0.0748269
0.0747734
0.0747137
0.0746428
0.0746107
0.074545
0.0745534
0.0750411
0.0749613
0.0749146
0.0748226
0.0747494
0.0746717
0.0745845
0.0745354
0.0744595
0.0744585
0.0750949
0.0750063
0.0749361
0.0748231
0.0747253
0.0746245
0.0745157
0.0744451
0.0743548
0.0743433
0.0751672
0.0750686
0.0749689
0.074829
0.0747006
0.07457
0.0744329
0.0743345
0.0742243
0.0742003
0.0752592
0.0751506
0.0750148
0.0748409
0.0746746
0.0745061
0.0743316
0.0741969
0.0740591
0.074019
0.0753696
0.0752536
0.0750751
0.0748595
0.0746466
0.0744297
0.074206
0.0740227
0.0738459
0.0737844
0.0754939
0.075376
0.0751511
0.0748857
0.0746164
0.0743379
0.0740487
0.0737989
0.0735659
0.0734736
0.0756224
0.0755123
0.0752433
0.0749214
0.0745846
0.0742278
0.0738505
0.0735071
0.0731899
0.0730506
0.0757403
0.0756504
0.0753517
0.0749706
0.0745538
0.0740973
0.0736002
0.0731211
0.0726717
0.0724541
0.0758308
0.0757729
0.0754752
0.0750397
0.0745293
0.0739459
0.0732843
0.0726033
0.0719347
0.071574
0.0758849
0.0758622
0.0756082
0.0751346
0.0745193
0.0737769
0.072889
0.0719013
0.0708482
0.0701757
0.0759103
0.0759222
0.0757384
0.0752481
0.0745249
0.0735894
0.0723915
0.0709313
0.0691892
0.0677519
0.0759017
0.0759323
0.0757983
0.0753218
0.0745248
0.0733844
0.0717882
0.0695906
0.0666381
0.0627536
0.075875
0.0758469
0.0756456
0.0751807
0.0743772
0.0730642
0.0710127
0.0675844
0.0629263
0.0513364
0.0763007
0.0765812
0.0762458
0.0761248
0.076087
0.0760856
0.0761207
0.0762392
0.0765723
0.0762882
0.0757349
0.0757212
0.075658
0.0756599
0.0756462
0.0756447
0.0756555
0.075651
0.0757117
0.0757223
0.0756164
0.0753811
0.0754408
0.0754881
0.0754897
0.0754879
0.075483
0.0754328
0.0753704
0.0756023
0.0755888
0.0753262
0.0754071
0.0754335
0.075433
0.0754309
0.0754273
0.0753973
0.0753134
0.0755723
0.0754944
0.0752759
0.0753596
0.0753612
0.0753583
0.0753557
0.0753533
0.0753472
0.0752599
0.0754742
0.0753747
0.0752009
0.0752836
0.0752727
0.0752722
0.0752689
0.0752625
0.0752675
0.0751805
0.0753494
0.0752768
0.0751364
0.0752129
0.075195
0.0751977
0.0751933
0.0751816
0.075192
0.0751103
0.0752446
0.0752055
0.0750905
0.0751583
0.0751346
0.0751385
0.0751328
0.0751173
0.0751312
0.0750574
0.0751641
0.0751503
0.0750563
0.0751133
0.0750848
0.0750882
0.0750809
0.0750624
0.0750781
0.0750122
0.0750961
0.0751045
0.0750267
0.0750724
0.0750408
0.0750426
0.0750332
0.0750116
0.0750265
0.0749674
0.075033
0.0750657
0.0749985
0.0750356
0.075002
0.0750011
0.0749888
0.0749638
0.0749757
0.0749213
0.0749729
0.0750355
0.0749754
0.0750039
0.0749679
0.0749631
0.0749469
0.074918
0.0749257
0.0748732
0.074915
0.0750143
0.0749584
0.0749776
0.074938
0.0749274
0.0749064
0.0748731
0.0748757
0.0748246
0.0748579
0.0750017
0.074947
0.0749565
0.0749117
0.0748935
0.0748662
0.0748274
0.0748237
0.074774
0.0747992
0.0749983
0.0749422
0.0749412
0.0748893
0.0748616
0.0748258
0.0747798
0.0747679
0.0747169
0.0747352
0.0750056
0.0749457
0.0749325
0.0748713
0.0748316
0.074785
0.0747292
0.0747069
0.0746517
0.0746633
0.075026
0.0749601
0.0749321
0.0748584
0.0748036
0.0747429
0.0746742
0.0746389
0.0745768
0.0745813
0.075062
0.0749881
0.0749414
0.0748513
0.0747773
0.0746984
0.0746129
0.0745611
0.0744891
0.0744856
0.0751164
0.0750327
0.0749622
0.0748507
0.0747525
0.0746503
0.0745427
0.0744701
0.0743838
0.0743708
0.0751912
0.0750972
0.0749965
0.0748575
0.074729
0.0745968
0.0744604
0.0743607
0.0742548
0.0742301
0.0752877
0.0751845
0.0750465
0.0748728
0.0747064
0.0745362
0.0743618
0.0742266
0.0740934
0.0740534
0.075404
0.0752957
0.0751139
0.0748975
0.0746848
0.0744663
0.0742421
0.0740589
0.0738876
0.0738267
0.0755337
0.075428
0.0752
0.0749333
0.0746645
0.0743848
0.0740948
0.073846
0.0736197
0.0735288
0.0756642
0.0755719
0.0753055
0.0749832
0.0746473
0.0742902
0.0739124
0.0735713
0.0732633
0.0731265
0.0757767
0.0757085
0.0754283
0.0750522