/*--------------------------------*- C++ -*----------------------------------*\
| =========                 |                                                 |
| \\      /  F ield         | OpenFOAM: The Open Source CFD Toolbox           |
|  \\    /   O peration     | Version:  4.1                                   |
|   \\  /    A nd           | Web:      www.OpenFOAM.org                      |
|    \\/     M anipulation  |                                                 |
\*---------------------------------------------------------------------------*/
FoamFile
{
    version     2.0;
    format      ascii;
    class       surfaceScalarField;
    location    "700";
    object      phi;
}
// * * * * * * * * * * * * * * * * * * * * * * * * * * * * * * * * * * * * * //

dimensions      [0 3 -1 0 0 0 0];

internalField   nonuniform List<scalar> 
33700
(
4.94506e-05
0.000901181
4.93966e-05
2.30707e-05
0.00097178
5.46347e-05
8.42971e-06
0.000957897
5.67827e-05
3.14786e-06
0.000948724
5.66003e-05
8.41688e-08
0.000946282
5.68252e-05
-2.9859e-06
0.000946289
5.68241e-05
-8.28379e-06
0.000948743
5.65961e-05
-2.2942e-05
0.000957918
5.67704e-05
-4.93372e-05
0.00097181
5.46078e-05
0.000901243
4.94303e-05
3.11489e-05
0.000839034
3.10603e-05
2.34799e-05
0.000942703
3.68195e-05
1.34837e-05
0.000929599
3.83811e-05
6.18347e-06
0.000918149
3.7971e-05
2.01307e-07
0.000913999
3.8364e-05
-5.79141e-06
0.000914017
3.83624e-05
-1.31167e-05
0.000918195
3.79553e-05
-2.31005e-05
0.000929641
3.83226e-05
-3.07592e-05
0.000942773
3.67361e-05
0.000839384
3.11124e-05
1.62012e-05
0.000806869
1.60267e-05
1.72499e-05
0.000921371
2.03593e-05
1.21179e-05
0.000913789
2.10352e-05
6.20922e-06
0.000903576
2.05846e-05
3.58741e-07
0.000898961
2.09956e-05
-5.5137e-06
0.000899004
2.09853e-05
-1.14894e-05
0.000903706
2.05465e-05
-1.66278e-05
0.000913893
2.09452e-05
-1.56674e-05
0.000921569
2.02792e-05
0.000807679
1.60477e-05
8.83477e-06
0.000789541
8.53768e-06
1.3664e-05
0.00090602
1.05801e-05
1.04121e-05
0.000906785
1.03306e-05
5.51638e-06
0.000898251
1.0306e-05
5.6964e-07
0.000893283
1.07112e-05
-4.40555e-06
0.00089337
1.06854e-05
-9.49336e-06
0.000898596
1.02568e-05
-1.27918e-05
0.000907024
1.02043e-05
-8.13886e-06
0.000906433
1.05025e-05
0.000791058
8.48718e-06
5.44656e-06
0.000779132
4.97904e-06
1.11609e-05
0.000894324
6.01015e-06
9.28016e-06
0.000904017
4.69029e-06
5.09867e-06
0.000897239
5.24414e-06
8.60172e-07
0.000891951
5.62044e-06
-3.42727e-06
0.000892105
5.59278e-06
-7.96028e-06
0.000897962
5.19122e-06
-1.00066e-05
0.000904562
4.51913e-06
-4.57375e-06
0.000895036
5.96735e-06
0.000781659
4.82454e-06
4.24973e-06
0.000771312
3.56155e-06
8.82656e-06
0.000885181
4.56438e-06
8.22647e-06
0.000902139
2.48656e-06
4.81697e-06
0.000897033
3.62993e-06
1.21182e-06
0.000891702
3.86588e-06
-2.47791e-06
0.000891962
3.83617e-06
-6.30608e-06
0.000898249
3.53457e-06
-7.29097e-06
0.000903218
2.31772e-06
-3.12285e-06
0.000886333
4.52277e-06
0.000775185
3.34672e-06
4.08548e-06
0.00076407
3.12713e-06
7.16226e-06
0.00087772
4.36035e-06
7.31053e-06
0.000900153
1.81903e-06
4.60384e-06
0.000896225
3.4999e-06
1.62416e-06
0.00089111
3.55502e-06
-1.47378e-06
0.000891518
3.518e-06
-4.58441e-06
0.00089793
3.40169e-06
-5.06392e-06
0.000901939
1.73088e-06
-2.54803e-06
0.000879495
4.30244e-06
0.000769738
2.89185e-06
4.28881e-06
0.000756759
2.98055e-06
6.14961e-06
0.00087133
4.48955e-06
6.77986e-06
0.000897906
1.58088e-06
4.59877e-06
0.00089464
3.73204e-06
2.1505e-06
0.000889932
3.58934e-06
-4.5234e-07
0.000890509
3.57033e-06
-3.01113e-06
0.000896804
3.64195e-06
-3.14478e-06
0.000900543
1.49598e-06
-2.19732e-06
0.000874051
4.47096e-06
0.000764726
2.80787e-06
4.66682e-06
0.00074914
2.90637e-06
5.65597e-06
0.000865595
4.69891e-06
6.71959e-06
0.00089538
1.4171e-06
4.89664e-06
0.000892519
3.89808e-06
2.83204e-06
0.000888357
3.59217e-06
5.78908e-07
0.00088914
3.57205e-06
-1.67158e-06
0.000895121
3.88529e-06
-1.65917e-06
0.000899134
1.3587e-06
-1.76736e-06
0.000869595
4.53727e-06
0.00076018
2.77331e-06
5.13232e-06
0.000741155
2.80435e-06
5.57245e-06
0.000860357
4.74943e-06
7.03455e-06
0.00089261
1.25765e-06
5.50314e-06
0.000889976
4.0238e-06
3.75696e-06
0.000886506
3.54482e-06
1.76645e-06
0.000887573
3.5022e-06
-4.27113e-07
0.000893225
4.04041e-06
-4.92323e-07
0.000897894
1.26734e-06
-1.25205e-06
0.000865675
4.65655e-06
0.000756165
2.75871e-06
5.70803e-06
0.000732787
2.61332e-06
5.79832e-06
0.000855493
4.72477e-06
7.67207e-06
0.000889598
1.08719e-06
6.43953e-06
0.000887023
4.13291e-06
5.01483e-06
0.000884379
3.49852e-06
3.3125e-06
0.000885842
3.38136e-06
1.07057e-06
0.0008913
4.12025e-06
1.07076e-06
0.000896886
9.74177e-07
-5.99459e-07
0.000862717
4.60737e-06
0.000752834
2.72913e-06
6.5171e-06
0.000723853
2.37375e-06
6.48603e-06
0.000850687
4.79037e-06
8.75419e-06
0.000886244
1.03753e-06
7.76948e-06
0.000883703
4.25487e-06
6.6246e-06
0.000881988
3.48618e-06
5.10256e-06
0.000883989
3.32665e-06
2.84089e-06
0.000889331
4.1882e-06
2.85694e-06
0.00089601
8.31047e-07
2.54268e-07
0.000860794
4.50751e-06
0.000750429
2.65865e-06
7.63185e-06
0.000714058
2.12197e-06
7.72376e-06
0.000845722
4.82934e-06
1.03603e-05
0.00088244
1.1214e-06
9.61062e-06
0.00088004
4.36627e-06
8.68127e-06
0.000879361
3.51074e-06
7.18826e-06
0.000882096
3.34264e-06
4.71682e-06
0.000887436
4.33053e-06
4.49465e-06
0.000895256
9.50846e-07
1.30117e-06
0.000859393
4.58054e-06
0.000749146
2.58445e-06
9.18736e-06
0.00070292
1.91379e-06
9.57745e-06
0.00084046
4.83172e-06
1.26162e-05
0.000878128
1.23074e-06
1.21181e-05
0.000876072
4.42315e-06
1.13508e-05
0.000876567
3.52032e-06
9.8081e-06
0.00088026
3.3394e-06
6.97881e-06
0.00088577
4.4631e-06
6.35611e-06
0.000894772
1.08584e-06
2.48546e-06
0.000858575
4.67855e-06
0.000749065
2.56784e-06
1.13374e-05
0.000689771
1.77791e-06
1.22196e-05
0.000834736
4.8062e-06
1.5708e-05
0.000873269
1.3319e-06
1.54831e-05
0.000871833
4.42507e-06
1.4825e-05
0.000873673
3.51506e-06
1.31677e-05
0.000878586
3.29746e-06
9.91643e-06
0.000884455
4.53835e-06
8.67201e-06
0.000894812
1.18651e-06
3.82486e-06
0.000858604
4.8096e-06
0.00075024
2.65121e-06
1.42015e-05
0.000673817
1.72088e-06
1.58335e-05
0.000828304
4.76534e-06
1.98539e-05
0.000867772
1.44101e-06
1.99595e-05
0.000867296
4.39557e-06
1.93748e-05
0.000870708
3.51683e-06
1.75325e-05
0.00087715
3.24761e-06
1.3707e-05
0.000883671
4.58593e-06
1.15827e-05
0.000895628
1.29316e-06
5.45714e-06
0.00085979
4.93351e-06
0.000752875
2.82471e-06
1.79262e-05
0.000654086
1.77316e-06
2.07066e-05
0.00082073
4.76182e-06
2.53663e-05
0.000861463
1.61529e-06
2.58726e-05
0.000862373
4.38257e-06
2.53368e-05
0.000867644
3.5687e-06
2.32148e-05
0.000876015
3.23026e-06
1.86229e-05
0.000883605
4.63648e-06
1.53396e-05
0.000897471
1.42741e-06
7.52046e-06
0.000862556
5.04749e-06
0.000757286
3.11164e-06
2.27128e-05
0.000629337
2.00542e-06
2.72275e-05
0.000811313
4.87191e-06
3.26468e-05
0.000854087
1.92412e-06
3.36338e-05
0.000856912
4.4424e-06
3.31294e-05
0.000864395
3.72456e-06
3.0606e-05
0.000875213
3.29979e-06
2.50159e-05
0.000884442
4.73363e-06
2.02173e-05
0.000900615
1.64356e-06
1.01919e-05
0.000867376
5.20123e-06
0.000763945
3.53589e-06
2.87685e-05
0.000598006
2.5314e-06
3.58811e-05
0.00079896
5.20963e-06
4.22206e-05
0.000845264
2.45181e-06
4.37643e-05
0.000850685
4.65243e-06
4.32773e-05
0.000860805
4.04941e-06
4.02197e-05
0.000874728
3.51895e-06
3.33473e-05
0.000886358
4.93875e-06
2.65792e-05
0.000905372
2.00098e-06
1.36881e-05
0.000874804
5.45916e-06
0.000773486
4.14856e-06
3.62688e-05
0.000558187
3.51668e-06
4.7243e-05
0.000782012
5.94319e-06
5.47473e-05
0.000834413
3.3153e-06
5.69143e-05
0.000843366
5.12258e-06
5.64472e-05
0.000856615
4.63066e-06
5.27189e-05
0.000874458
3.97645e-06
4.42339e-05
0.000889497
5.3286e-06
3.49115e-05
0.000912106
2.57852e-06
1.82933e-05
0.000885506
5.91181e-06
0.000786746
5.03467e-06
4.52759e-05
0.000507676
5.20056e-06
6.19254e-05
0.000758016
7.31607e-06
7.09992e-05
0.000820648
4.66116e-06
7.38879e-05
0.000834462
5.98487e-06
7.34774e-05
0.000851412
5.58718e-06
6.89727e-05
0.000874146
4.79383e-06
5.851e-05
0.000893928
6.01543e-06
4.58895e-05
0.000921231
3.48508e-06
2.44126e-05
0.000900306
6.67323e-06
0.000804841
6.31787e-06
5.55843e-05
0.000444235
7.81952e-06
8.04618e-05
0.000723505
9.60287e-06
9.18282e-05
0.000802487
6.76375e-06
9.56539e-05
0.000823195
7.4123e-06
9.54187e-05
0.000844542
7.07836e-06
9.0127e-05
0.000873276
6.13939e-06
7.73144e-05
0.00089956
7.16343e-06
6.04868e-05
0.000933177
4.8722e-06
3.26325e-05
0.000920241
7.91413e-06
0.000829295
8.1779e-06
6.64739e-05
0.000366233
1.14871e-05
0.000102839
0.000674059
1.30496e-05
0.000118128
0.00077728
9.88753e-06
0.00012335
0.000808253
9.6908e-06
0.000123582
0.00083496
9.32387e-06
0.000117691
0.000870896
8.24812e-06
0.000102252
0.00090598
9.00341e-06
8.01459e-05
0.000948319
6.9526e-06
4.38645e-05
0.000946651
9.86562e-06
0.000862287
1.08694e-05
7.63936e-05
0.000273757
1.60407e-05
0.00012793
0.00060476
1.77327e-05
0.00015035
0.00074051
1.43209e-05
0.000158236
0.000787164
1.31747e-05
0.000159606
0.000820953
1.26095e-05
0.000153684
0.000865392
1.14025e-05
0.000135648
0.000912159
1.18386e-05
0.000107084
0.000966841
1.00301e-05
5.95296e-05
0.000981327
1.28694e-05
0.000907049
1.4762e-05
8.25609e-05
0.000170519
2.06325e-05
0.000152605
0.000511468
2.32197e-05
0.000187613
0.000685115
2.03599e-05
0.000201425
0.000754983
1.83414e-05
0.000205522
0.000799476
1.73525e-05
0.000200801
0.000854104
1.59848e-05
0.000180881
0.000915992
1.60667e-05
0.000144851
0.000988341
1.45147e-05
8.22095e-05
0.00102657
1.7391e-05
0.000968848
2.03999e-05
8.0097e-05
6.74191e-05
2.29549e-05
0.000170352
0.000393001
2.81856e-05
0.00022659
0.000600704
2.81479e-05
0.000253292
0.000702177
2.60768e-05
0.000263856
0.000764632
2.42539e-05
0.000262828
0.000832641
2.2466e-05
0.00024299
0.000913638
2.2168e-05
0.00019925
0.00101113
2.09329e-05
0.000116135
0.00108556
2.40989e-05
0.00105639
2.858e-05
6.03217e-05
-1.37063e-05
2.0746e-05
0.00017099
0.000252227
3.00808e-05
0.000259844
0.000474741
3.70872e-05
0.000311303
0.000613227
3.74686e-05
0.000336477
0.000704829
3.46052e-05
0.000344487
0.00079296
3.16465e-05
0.000329343
0.000898014
3.07419e-05
0.000280272
0.00103024
2.99335e-05
0.00017206
0.00115976
3.39815e-05
0.00118776
4.06597e-05
1.53901e-05
-5.39025e-05
2.47513e-05
0.000145386
8.70048e-05
3.51931e-05
0.000276106
0.000295301
4.86989e-05
0.000368783
0.000467518
5.30111e-05
0.000424146
0.000599843
4.95995e-05
0.00045234
0.000720183
4.45584e-05
0.000451324
0.000856689
4.2313e-05
0.000404029
0.00103563
4.18807e-05
0.000267491
0.00124839
4.78827e-05
0.00139692
5.83062e-05
-6.5479e-07
-8.06768e-05
2.7391e-05
0.000104785
-6.41373e-05
4.5661e-05
0.00025626
7.68555e-05
6.69317e-05
0.000397581
0.000249822
7.63402e-05
0.00050941
0.000415706
7.22737e-05
0.000585517
0.000580427
6.36132e-05
0.000624737
0.000759039
5.8395e-05
0.00059541
0.00100736
5.75586e-05
0.000474463
0.00130178
6.75134e-05
0.00178652
8.48307e-05
7.31802e-05
4.64444e-06
-0.000158523
0.000172729
2.36128e-05
-0.000187338
0.000281286
5.97461e-05
-9.15085e-05
0.000409473
8.66995e-05
3.48541e-05
0.000562961
9.38679e-05
0.000168263
0.000715093
8.70458e-05
0.000341169
0.000852325
7.73786e-05
0.000544358
0.000902612
7.43469e-05
0.000882675
0.000888772
8.48678e-05
0.00123072
0.000119632
0.00255565
5.46784e-05
0.0009717
2.30073e-05
2.08114e-05
0.00106773
2.07601e-05
6.4894e-06
0.00104976
2.13336e-05
2.27245e-06
0.00103934
2.14644e-05
6.24509e-08
0.00103744
2.15847e-05
-2.15471e-06
0.00103744
2.15842e-05
-6.3923e-06
0.00103936
2.14618e-05
-2.07643e-05
0.0010498
2.13281e-05
-5.47999e-05
0.00106787
2.07634e-05
0.000971581
2.30456e-05
3.68715e-05
0.000942526
2.33352e-05
2.36231e-05
0.00109425
2.35055e-05
1.32283e-05
0.00107562
2.28759e-05
5.87397e-06
0.00106198
2.26532e-05
1.66508e-07
0.00105869
2.2783e-05
-5.55546e-06
0.00105871
2.2783e-05
-1.29583e-05
0.00106204
2.26514e-05
-2.33729e-05
0.00107567
2.28437e-05
-3.65247e-05
0.00109423
2.35083e-05
0.000942769
2.33946e-05
2.05142e-05
0.000921024
1.69964e-05
1.83596e-05
0.00109864
1.81102e-05
1.18996e-05
0.00108556
1.75373e-05
5.71159e-06
0.00107166
1.70697e-05
3.60244e-07
0.00106782
1.72006e-05
-5.022e-06
0.00106788
1.71845e-05
-1.13126e-05
0.00107183
1.70434e-05
-1.79147e-05
0.00108575
1.74607e-05
-2.01471e-05
0.00109861
1.81288e-05
0.000921654
1.70149e-05
1.08627e-05
0.00090542
1.32728e-05
1.37843e-05
0.00109291
1.33866e-05
9.81099e-06
0.00108544
1.44175e-05
4.77862e-06
0.00107274
1.42533e-05
5.80515e-07
0.00106828
1.4442e-05
-3.67491e-06
0.0010684
1.44252e-05
-8.85586e-06
0.00107299
1.42783e-05
-1.29957e-05
0.00108588
1.42257e-05
-1.02745e-05
0.00109307
1.33314e-05
0.000906628
1.32411e-05
6.45627e-06
0.00089337
1.05827e-05
1.11064e-05
0.00108374
1.05355e-05
8.5715e-06
0.00108142
1.12631e-05
4.428e-06
0.00107046
1.16805e-05
8.1823e-07
0.00106562
1.19069e-05
-2.84989e-06
0.00106578
1.18957e-05
-7.12228e-06
0.00107072
1.17556e-05
-9.93002e-06
0.00108207
1.11543e-05
-5.51427e-06
0.00108415
1.04799e-05
0.000895515
1.04313e-05
5.21496e-06
0.000883739
8.00326e-06
9.92466e-06
0.00107449
9.14179e-06
7.76123e-06
0.00107782
8.28816e-06
4.30824e-06
0.00106855
9.02806e-06
1.09047e-06
0.00106354
9.20031e-06
-2.17934e-06
0.00106375
9.17938e-06
-5.76585e-06
0.00106881
9.07209e-06
-8.3605e-06
0.00107864
8.37578e-06
-3.87322e-06
0.00107507
9.14387e-06
0.000887258
7.74344e-06
5.26321e-06
0.000875602
6.03945e-06
9.34992e-06
0.00106652
8.28666e-06
7.12635e-06
0.00107529
6.62157e-06
4.22559e-06
0.00106743
7.58265e-06
1.44714e-06
0.00106236
7.57899e-06
-1.40861e-06
0.00106263
7.55798e-06
-4.49897e-06
0.00106787
7.48584e-06
-7.2533e-06
0.00107639
6.78358e-06
-3.47119e-06
0.00106733
8.29029e-06
0.000881001
5.69415e-06
5.71022e-06
0.000868298
4.62043e-06
9.20098e-06
0.0010598
7.76985e-06
6.83174e-06
0.00107357
5.73339e-06
4.33539e-06
0.00106686
6.86473e-06
1.90999e-06
0.00106177
6.6688e-06
-6.18775e-07
0.00106216
6.63309e-06
-3.45691e-06
0.0010677
6.71694e-06
-6.62697e-06
0.00107519
5.91307e-06
-3.39343e-06
0.00106061
7.99182e-06
0.000876305
4.13014e-06
6.31759e-06
0.000861328
3.60951e-06
9.35747e-06
0.00105408
7.44275e-06
6.93913e-06
0.00107233
5.14543e-06
4.71645e-06
0.0010665
6.55511e-06
2.53464e-06
0.00106148
6.14955e-06
2.15732e-07
0.00106204
6.09258e-06
-2.49581e-06
0.00106804
6.31975e-06
-5.78148e-06
0.00107463
5.25003e-06
-3.13367e-06
0.001055
7.54174e-06
0.00087282
3.14529e-06
6.90587e-06
0.000854411
2.86751e-06
9.74396e-06
0.00104884
7.20753e-06
7.38384e-06
0.00107132
4.68938e-06
5.3795e-06
0.00106623
6.36924e-06
3.3803e-06
0.00106135
5.74511e-06
1.19982e-06
0.00106212
5.67696e-06
-1.4035e-06
0.00106865
6.10625e-06
-4.73527e-06
0.00107458
4.70088e-06
-2.83018e-06
0.00105077
7.01342e-06
0.000870174
2.59575e-06
7.60893e-06
0.000847299
2.16782e-06
1.04126e-05
0.00104375
7.07129e-06
8.18164e-06
0.0010704
4.31169e-06
6.32461e-06
0.00106615
6.14893e-06
4.435e-06
0.00106151
5.30295e-06
2.23673e-06
0.00106254
5.23355e-06
-3.65634e-07
0.00106942
6.01285e-06
-4.06299e-06
0.00107497
4.33287e-06
-2.2558e-06
0.00104654
7.06897e-06
0.000868774
1.89412e-06
8.61096e-06
0.000839525
1.58509e-06
1.13067e-05
0.001039
6.9042e-06
9.34396e-06
0.00106942
4.0437e-06
7.60187e-06
0.00106621
6.00179e-06
5.78192e-06
0.00106195
4.94255e-06
3.53226e-06
0.00106331
4.86708e-06
7.28678e-07
0.00107054
5.91907e-06
-3.12462e-06
0.00107567
4.02309e-06
-1.60143e-06
0.0010425
7.0533e-06
0.000868553
1.29678e-06
9.83463e-06
0.000830682
1.17542e-06
1.24425e-05
0.00103463
6.63617e-06
1.09074e-05
0.00106832
3.81143e-06
9.31742e-06
0.00106634
5.88693e-06
7.58116e-06
0.00106261
4.6543e-06
5.33776e-06
0.00106439
4.56882e-06
2.31209e-06
0.00107211
5.83876e-06
-1.45806e-06
0.00107678
3.65251e-06
-9.87393e-07
0.00104011
6.5358e-06
0.000869042
1.12634e-06
1.13637e-05
0.000820378
8.93233e-07
1.4036e-05
0.00103044
6.39213e-06
1.29979e-05
0.00106704
3.60221e-06
1.15906e-05
0.00106645
5.78474e-06
9.92804e-06
0.00106343
4.42293e-06
7.66022e-06
0.00106575
4.30498e-06
4.40104e-06
0.00107409
5.78296e-06
5.24136e-07
0.00107848
3.29468e-06
-1.50882e-07
0.00103944
6.04159e-06
0.000870383
1.09242e-06
1.33012e-05
0.000808171
7.18903e-07
1.62704e-05
0.00102609
6.22581e-06
1.57836e-05
0.00106541
3.49246e-06
1.45798e-05
0.00106639
5.73713e-06
1.29806e-05
0.00106431
4.28578e-06
1.06177e-05
0.00106735
4.10853e-06
7.0019e-06
0.00107655
5.73332e-06
2.74689e-06
0.00108093
3.02045e-06
8.99743e-07
0.00104035
5.7749e-06
0.000872812
1.13626e-06
1.57548e-05
0.00079352
6.47216e-07
1.93227e-05
0.00102119
6.13585e-06
1.94766e-05
0.00106326
3.48066e-06
1.85049e-05
0.00106606
5.73497e-06
1.69528e-05
0.00106519
4.23662e-06
1.44225e-05
0.0010692
3.96836e-06
1.03346e-05
0.00107954
5.72327e-06
5.4904e-06
0.00108428
2.81951e-06
2.28214e-06
0.00104291
5.60114e-06
0.00087665
1.28138e-06
1.88911e-05
0.000775698
7.29132e-07
2.34172e-05
0.00101532
6.13068e-06
2.43299e-05
0.00106043
3.56374e-06
2.3636e-05
0.00106538
5.79622e-06
2.2114e-05
0.00106604
4.28051e-06
1.93258e-05
0.00107135
3.90026e-06
1.4618e-05
0.00108315
5.76115e-06
8.93653e-06
0.0010887
2.70821e-06
4.11521e-06
0.00104729
5.51569e-06
0.00088238
1.50805e-06
2.29043e-05
0.000753813
1.00665e-06
2.88774e-05
0.00100797
6.271e-06
3.06787e-05
0.00105678
3.80146e-06
3.03206e-05
0.00106426
5.95673e-06
2.88081e-05
0.00106686
4.44755e-06
2.56632e-05
0.00107389
3.93713e-06
2.01556e-05
0.00108755
5.8626e-06
1.3341e-05
0.00109447
2.70517e-06
6.52109e-06
0.00105381
5.51328e-06
0.000890602
1.84499e-06
2.79942e-05
0.000726804
1.56424e-06
3.60984e-05
0.000998453
6.64327e-06
3.89439e-05
0.00105214
4.26149e-06
3.89978e-05
0.0010626
6.27905e-06
3.74771e-05
0.00106767
4.78786e-06
3.38639e-05
0.00107693
4.11706e-06
2.73405e-05
0.00109297
6.06348e-06
1.90151e-05
0.00110197
2.84214e-06
9.65964e-06
0.00106302
5.62152e-06
0.000902077
2.33992e-06
3.43519e-05
0.000693462
2.52008e-06
4.55788e-05
0.000985792
7.39273e-06
4.96578e-05
0.00104635
5.05265e-06
5.02203e-05
0.00106032
6.86477e-06
4.8688e-05
0.00106847
5.38336e-06
4.44913e-05
0.00108061
4.5151e-06
3.66899e-05
0.00109969
6.42363e-06
2.63741e-05
0.0011117
3.17745e-06
1.37621e-05
0.00107565
5.89841e-06
0.000917816
3.06351e-06
4.21168e-05
0.000652419
4.138e-06
5.78579e-05
0.00096865
8.72747e-06
6.34706e-05
0.00103912
6.28805e-06
6.46662e-05
0.00105731
7.81072e-06
6.31595e-05
0.00106924
6.34165e-06
5.82847e-05
0.00108506
5.23078e-06
4.89047e-05
0.00110807
7.02743e-06
3.5997e-05
0.0011243
3.80082e-06
1.91613e-05
0.00109274
6.42889e-06
0.000939179
4.12048e-06
5.13192e-05
0.000602196
6.73049e-06
7.34441e-05
0.000945233
1.09029e-05
8.11852e-05
0.00102988
8.27696e-06
8.31717e-05
0.00105346
9.29008e-06
8.18067e-05
0.00106988
7.81845e-06
7.6229e-05
0.00109038
6.40941e-06
6.49639e-05
0.00111849
8.01259e-06
4.87163e-05
0.0011406
4.82856e-06
2.63572e-05
0.00111567
7.3441e-06
0.000968054
5.66118e-06
6.17144e-05
0.000541394
1.05775e-05
9.26732e-05
0.000913054
1.42754e-05
0.000103581
0.00101761
1.12478e-05
0.000106717
0.00104846
1.15694e-05
0.000105787
0.00107011
1.00299e-05
9.96543e-05
0.00109651
8.25926e-06
8.62716e-05
0.00113132
9.56861e-06
6.5778e-05
0.00116162
6.43314e-06
3.61248e-05
0.00114637
8.82644e-06
0.00100715
7.90204e-06
7.2549e-05
0.000468947
1.59389e-05
0.000115356
0.000868742
1.92393e-05
0.000131401
0.00100038
1.55195e-05
0.000136507
0.00104157
1.4967e-05
0.0001366
0.00106936
1.3272e-05
0.000130382
0.00110307
1.10624e-05
0.000114869
0.00114673
1.1943e-05
8.91107e-05
0.00118855
8.85494e-06
4.96947e-05
0.00118751
1.11441e-05
0.00106045
1.11452e-05
8.23811e-05
0.000384686
2.25083e-05
0.000140353
0.000808111
2.5879e-05
0.000165133
0.000974279
2.16781e-05
0.000173974
0.00103105
2.00228e-05
0.000176212
0.0010665
1.79793e-05
0.000170966
0.00110908
1.52245e-05
0.000153827
0.00116444
1.54886e-05
0.000121894
0.00122255
1.24449e-05
6.93396e-05
0.00124278
1.46631e-05
0.00113435
1.58294e-05
8.85608e-05
0.000290404
2.8668e-05
0.000164742
0.000726448
3.36652e-05
0.00020414
0.000932877
3.0152e-05
0.000220603
0.00101314
2.75207e-05
0.000227203
0.00105941
2.47437e-05
0.000224978
0.00111255
2.12138e-05
0.000207815
0.00118315
2.06145e-05
0.000169456
0.00126422
1.7608e-05
9.88496e-05
0.0013176
1.98672e-05
0.00123924
2.25259e-05
8.72161e-05
0.000192718
3.12042e-05
0.000183063
0.000620359
4.03193e-05
0.000245463
0.000866799
4.07645e-05
0.000277056
0.000980638
3.83814e-05
0.000292638
0.00104406
3.43725e-05
0.000297304
0.00111004
2.94939e-05
0.000283945
0.00119959
2.76479e-05
0.000241117
0.00131227
2.46852e-05
0.000148159
0.00141714
2.73691e-05
0.00139598
3.20475e-05
7.24365e-05
0.000115324
2.96986e-05
0.000189197
0.000493873
4.49142e-05
0.000284224
0.00076755
5.29202e-05
0.000342539
0.000922618
5.27165e-05
0.000375791
0.00101332
4.70874e-05
0.000394361
0.00109624
3.97794e-05
0.000392781
0.00120747
3.59971e-05
0.000352416
0.00136141
3.3078e-05
0.000233343
0.00154689
3.71578e-05
0.00164256
4.50342e-05
5.08821e-05
7.16207e-05
2.01931e-05
0.000177852
0.000364951
4.76054e-05
0.000307612
0.000639604
6.51105e-05
0.000407947
0.000829723
6.88915e-05
0.000476638
0.00095528
6.16129e-05
0.000523074
0.00106283
5.05684e-05
0.000550015
0.00119527
4.36306e-05
0.000524601
0.00140395
4.04004e-05
0.000421782
0.00166901
4.81737e-05
0.0020874
6.17562e-05
6.59644e-05
-1.29834e-05
2.32822e-05
0.000180302
3.18641e-05
0.000242344
0.000320211
5.86559e-05
0.000500764
0.000456631
6.72573e-05
0.00071272
0.000576882
6.06847e-05
0.00086818
0.000678644
4.75817e-05
0.0010005
0.000775935
3.77972e-05
0.00113752
0.000807868
3.44625e-05
0.00141186
0.000801998
4.8451e-05
0.00171127
7.82411e-05
0.00293078
5.68229e-05
0.000957825
8.35217e-06
2.1383e-05
0.00104976
6.42709e-06
6.34989e-06
0.00103007
6.2911e-06
2.12253e-06
0.00101941
6.2735e-06
5.53809e-08
0.00101737
6.27721e-06
-2.01913e-06
0.00101737
6.27499e-06
-6.26628e-06
0.00101944
6.26737e-06
-2.13723e-05
0.00103014
6.28241e-06
-5.7036e-05
0.00104999
6.43146e-06
0.000957642
8.36375e-06
3.84138e-05
0.000929435
1.32945e-05
2.29782e-05
0.00107563
1.30601e-05
1.27517e-05
0.00105055
1.25998e-05
5.82832e-06
0.00103656
1.23987e-05
1.4619e-07
0.00103346
1.23393e-05
-5.55105e-06
0.0010335
1.23277e-05
-1.25261e-05
0.00103667
1.23682e-05
-2.2796e-05
0.00105067
1.25675e-05
-3.79593e-05
0.00107554
1.31021e-05
0.000929747
1.33254e-05
2.11687e-05
0.00091346
1.17928e-05
1.77732e-05
0.00108554
1.1583e-05
1.14534e-05
0.00106324
1.11532e-05
5.75548e-06
0.00104839
1.09198e-05
3.40636e-07
0.00104519
1.08548e-05
-5.09111e-06
0.00104526
1.08335e-05
-1.08623e-05
0.00104862
1.08588e-05
-1.73627e-05
0.00106354
1.10908e-05
-2.07669e-05
0.00108545
1.16203e-05
0.000914178
1.18152e-05
1.05929e-05
0.000906221
9.91751e-06
1.48061e-05
0.00108538
9.33147e-06
9.55719e-06
0.0010738
9.10083e-06
4.69117e-06
0.00105851
8.98886e-06
5.37535e-07
0.00105478
8.99403e-06
-3.64733e-06
0.00105488
8.98819e-06
-8.59894e-06
0.0010589
8.95286e-06
-1.4011e-05
0.00107416
9.01806e-06
-1.00067e-05
0.00108544
9.33775e-06
0.000907484
9.9302e-06
5.10744e-06
0.00090313
8.5766e-06
1.18138e-05
0.00108133
7.88936e-06
8.23044e-06
0.00108106
7.59442e-06
4.15032e-06
0.00106647
7.80647e-06
7.66529e-07
0.00106213
7.94896e-06
-2.69537e-06
0.00106229
7.95964e-06
-6.9476e-06
0.00106711
7.80757e-06
-1.06362e-05
0.0010814
7.6103e-06
-4.10627e-06
0.00108155
7.84609e-06
0.000905279
8.53508e-06
3.09622e-06
0.000900816
7.244e-06
9.03819e-06
0.00107772
6.83509e-06
6.96292e-06
0.00108537
6.07768e-06
3.86353e-06
0.00107211
6.50637e-06
1.04979e-06
0.00106744
6.72684e-06
-1.8604e-06
0.00106768
6.7226e-06
-5.24137e-06
0.00107307
6.52536e-06
-7.52255e-06
0.00108589
6.19294e-06
-1.7048e-06
0.00107815
6.7433e-06
0.00090418
7.14572e-06
2.66259e-06
0.000898272
5.95213e-06
7.65599e-06
0.00107516
5.88943e-06
6.03415e-06
0.00108884
4.81632e-06
3.71969e-06
0.00107671
5.33875e-06
1.42317e-06
0.00107182
5.53755e-06
-9.77784e-07
0.00107214
5.53616e-06
-3.66332e-06
0.00107792
5.34884e-06
-5.64653e-06
0.00108977
4.90795e-06
-9.54657e-07
0.00107602
5.74369e-06
0.000903077
5.85225e-06
2.67075e-06
0.000895337
4.924e-06
7.07441e-06
0.00107337
5.18783e-06
5.59028e-06
0.00109213
3.96635e-06
3.82976e-06
0.00108084
4.54585e-06
1.91097e-06
0.00107579
4.67074e-06
-1.55465e-07
0.00107622
4.66577e-06
-2.40497e-06
0.00108238
4.54486e-06
-4.47886e-06
0.0010938
3.99228e-06
-5.38983e-07
0.00107503
5.06069e-06
0.000901868
4.81228e-06
2.84186e-06
0.000891941
4.20521e-06
6.97072e-06
0.00107199
4.74089e-06
5.53621e-06
0.00109537
3.39218e-06
4.24215e-06
0.00108463
4.10941e-06
2.54809e-06
0.00107957
4.11661e-06
6.61232e-07
0.00108015
4.09768e-06
-1.27505e-06
0.00108662
4.05501e-06
-3.36944e-06
0.00109784
3.33143e-06
-1.53542e-07
0.00107479
4.59311e-06
0.000900737
4.13603e-06
3.13719e-06
0.00088807
3.64476e-06
7.22028e-06
0.0010707
4.46719e-06
5.86273e-06
0.00109848
2.98818e-06
4.92464e-06
0.00108814
3.84845e-06
3.35938e-06
0.00108319
3.73869e-06
1.56803e-06
0.00108397
3.70801e-06
-7.98707e-08
0.00109071
3.71036e-06
-2.20522e-06
0.00110186
2.83312e-06
2.20672e-07
0.00107529
4.11869e-06
0.000899825
3.74227e-06
3.64742e-06
0.000883472
3.16148e-06
7.6466e-06
0.00106948
4.33229e-06
6.49451e-06
0.00110132
2.67673e-06
5.85578e-06
0.00109135
3.62885e-06
4.36229e-06
0.00108663
3.40997e-06
2.56775e-06
0.00108766
3.38556e-06
1.09001e-06
0.00109473
3.50756e-06
-1.18913e-06
0.00110594
2.57087e-06
9.12211e-07
0.00107634
3.93787e-06
0.000899389
3.25504e-06
4.47328e-06
0.0008778
2.82484e-06
8.27633e-06
0.00106838
4.24078e-06
7.42762e-06
0.00110384
2.41575e-06
7.0946e-06
0.00109427
3.46257e-06
5.66497e-06
0.00108991
3.14372e-06
3.83988e-06
0.00109128
3.11423e-06
2.40857e-06
0.00109872
3.39922e-06
-1.2654e-07
0.00111015
2.3701e-06
1.62205e-06
0.00107766
4.01121e-06
0.000899535
2.78549e-06
5.60983e-06
0.000870818
2.58418e-06
9.25021e-06
0.00106728
4.14052e-06
8.78545e-06
0.00110594
2.21448e-06
8.74013e-06
0.00109691
3.34461e-06
7.39197e-06
0.00109303
2.93428e-06
5.54471e-06
0.00109485
2.88565e-06
4.12395e-06
0.0011027
3.3072e-06
1.31067e-06
0.00111455
2.08947e-06
2.23536e-06
0.00107935
3.94497e-06
0.000900305
2.60141e-06
7.07669e-06
0.000862277
2.39026e-06
1.06948e-05
0.00106601
4.08101e-06
1.0665e-05
0.00110755
2.06195e-06
1.09025e-05
0.00109923
3.25847e-06
9.64566e-06
0.00109598
2.77038e-06
7.74471e-06
0.0010984
2.69462e-06
6.2543e-06
0.00110676
3.24435e-06
3.12797e-06
0.00111919
1.81094e-06
3.00637e-06
0.0010817
3.82413e-06
0.000901854
2.55883e-06
8.91859e-06
0.000851816
2.29035e-06
1.27375e-05
0.00106438
4.05812e-06
1.32095e-05
0.00110862
1.98199e-06
1.37334e-05
0.00110127
3.21369e-06
1.2571e-05
0.0010988
2.66462e-06
1.05653e-05
0.00110199
2.5527e-06
8.86048e-06
0.00111102
3.20283e-06
5.28675e-06
0.00112421
1.5923e-06
4.01371e-06
0.00108501
3.75839e-06
0.000904454
2.55666e-06
1.12542e-05
0.000838947
2.28548e-06
1.5548e-05
0.00106216
4.08819e-06
1.66105e-05
0.00110909
1.97534e-06
1.74313e-05
0.001103
3.21366e-06
1.63655e-05
0.00110151
2.62285e-06
1.41876e-05
0.00110571
2.45573e-06
1.21288e-05
0.00111563
3.19244e-06
7.92811e-06
0.00112981
1.43384e-06
5.31755e-06
0.0010895
3.72865e-06
0.000908462
2.59622e-06
1.42747e-05
0.000823059
2.36289e-06
1.9382e-05
0.001059
4.20269e-06
2.11129e-05
0.00110886
2.08178e-06
2.22493e-05
0.00110441
3.27761e-06
2.1273e-05
0.00110414
2.65806e-06
1.88444e-05
0.00110964
2.41938e-06
1.62681e-05
0.00112075
3.22904e-06
1.12323e-05
0.00113622
1.34497e-06
7.03104e-06
0.00109548
3.74947e-06
0.00091431
2.69433e-06
1.81445e-05
0.000803357
2.5799e-06
2.44973e-05
0.00105451
4.43234e-06
2.70294e-05
0.00110782
2.33303e-06
2.85078e-05
0.00110547
3.43796e-06
2.76098e-05
0.00110671
2.79657e-06
2.48433e-05
0.0011139
2.46741e-06
2.15564e-05
0.00112659
3.32972e-06
1.54296e-05
0.00114372
1.33921e-06
9.26769e-06
0.00110334
3.82284e-06
0.000922549
2.876e-06
2.3054e-05
0.000778874
3.00665e-06
3.12529e-05
0.00104813
4.83293e-06
3.47309e-05
0.00110583
2.7859e-06
3.6603e-05
0.00110616
3.73886e-06
3.57803e-05
0.00110926
3.07491e-06
3.25787e-05
0.0011186
2.63466e-06
2.83527e-05
0.00113337
3.52108e-06
2.08029e-05
0.00115268
1.44629e-06
1.21743e-05
0.00111363
3.97053e-06
0.000933893
3.16995e-06
2.91427e-05
0.000748481
3.77996e-06
4.00037e-05
0.00103918
5.493e-06
4.46564e-05
0.00110276
3.48442e-06
4.70209e-05
0.00110642
4.24611e-06
4.62921e-05
0.00111184
3.5498e-06
4.2563e-05
0.00112388
2.97185e-06
3.71312e-05
0.00114138
3.84703e-06
2.77393e-05
0.00116354
1.70818e-06
1.59744e-05
0.00112706
4.23152e-06
0.000949307
3.62381e-06
3.65384e-05
0.000711093
4.99497e-06
5.13328e-05
0.00102657
6.54996e-06
5.74155e-05
0.0010984
4.57731e-06
6.03629e-05
0.00110623
5.06416e-06
5.97856e-05
0.00111447
4.30118e-06
5.54621e-05
0.00112989
3.55123e-06
4.85291e-05
0.00115098
4.36826e-06
3.67697e-05
0.00117693
2.18068e-06
2.09749e-05
0.00114462
4.66311e-06
0.000970092
4.30884e-06
4.5276e-05
0.000665761
6.79048e-06
6.56535e-05
0.0010089
8.19898e-06
7.36356e-05
0.00109248
6.21983e-06
7.73218e-05
0.00110553
6.3154e-06
7.70537e-05
0.00111713
5.43394e-06
7.21517e-05
0.00113674
4.46773e-06
6.34351e-05
0.00116254
5.17044e-06
4.86503e-05
0.0011936
2.94259e-06
2.76402e-05
0.00116763
5.34538e-06
0.000998072
5.31931e-06
5.50271e-05
0.000611792
9.52061e-06
8.30616e-05
0.000984539
1.0605e-05
9.38604e-05
0.00108448
8.45012e-06
9.86915e-05
0.00110415
8.12218e-06
9.90815e-05
0.00111969
7.08347e-06
9.38024e-05
0.00114444
5.8497e-06
8.31053e-05
0.00117644
6.36787e-06
6.451e-05
0.00121453
4.09874e-06
3.66772e-05
0.00119791
6.38317e-06
0.00103586
6.78314e-06
6.516e-05
0.000549229
1.33401e-05
0.000103503
0.000951446
1.39883e-05
0.000118704
0.00107336
1.14325e-05
0.000125406
0.00110175
1.0668e-05
0.000127094
0.00112185
9.42474e-06
0.000121994
0.00115275
7.85272e-06
0.000109366
0.00119292
8.09263e-06
8.61025e-05
0.00124087
5.77566e-06
4.92247e-05
0.00123801
7.90966e-06
0.00108738
8.85237e-06
7.47179e-05
0.000479109
1.79056e-05
0.000126238
0.000907333
1.84692e-05
0.000148506
0.00105729
1.54838e-05
0.000158443
0.00109762
1.42115e-05
0.000162571
0.00112304
1.26651e-05
0.000158838
0.00116106
1.06476e-05
0.000144915
0.00121185
1.04769e-05
0.000116317
0.0012738
8.09955e-06
6.73673e-05
0.00129155
1.00621e-05
0.00115887
1.16961e-05
8.23735e-05
0.000403107
2.22892e-05
0.000149458
0.000850055
2.38555e-05
0.0001828
0.00103331
2.07875e-05
0.000198647
0.00109032
1.89809e-05