/*--------------------------------*- C++ -*----------------------------------*\
| =========                 |                                                 |
| \\      /  F ield         | OpenFOAM: The Open Source CFD Toolbox           |
|  \\    /   O peration     | Version:  4.1                                   |
|   \\  /    A nd           | Web:      www.OpenFOAM.org                      |
|    \\/     M anipulation  |                                                 |
\*---------------------------------------------------------------------------*/
FoamFile
{
    version     2.0;
    format      ascii;
    class       volVectorField;
    location    "700";
    object      U;
}
// * * * * * * * * * * * * * * * * * * * * * * * * * * * * * * * * * * * * * //

dimensions      [0 1 -1 0 0 0 0];

internalField   nonuniform List<vector> 
12000
(
(0.0919683 -0.00968104 0.00967756)
(0.0965724 -0.0018093 0.0106366)
(0.0959808 -0.00135428 0.0110516)
(0.0955907 -0.000560566 0.0110729)
(0.0954934 -0.000151241 0.0111018)
(0.0954936 0.000134591 0.0111018)
(0.0955912 0.000545047 0.0110729)
(0.0959812 0.0013401 0.0110515)
(0.096573 0.0017949 0.0106341)
(0.0919721 0.00968291 0.00967635)
(0.0862168 -0.00380022 0.00379282)
(0.0952309 -0.00252293 0.00518562)
(0.0938427 -0.00195582 0.0056249)
(0.0927779 -0.000891152 0.00560281)
(0.092446 -0.000280532 0.00563545)
(0.0924472 0.000240153 0.0056353)
(0.0927808 0.0008525 0.00560196)
(0.0938453 0.00191697 0.00562315)
(0.0952349 0.00248047 0.00518695)
(0.0862303 0.00379307 0.00379855)
(0.0823007 0.000794284 -0.000807964)
(0.0935836 -0.00258595 0.000116118)
(0.092288 -0.00167513 0.000367485)
(0.0910711 -0.000818966 0.000356556)
(0.0905997 -0.000306481 0.000387686)
(0.0906031 0.000234642 0.000386998)
(0.0910806 0.000751457 0.000353856)
(0.0922964 0.00161016 0.000362258)
(0.0935935 0.00252754 0.000112054)
(0.0823532 -0.000816869 -0.000804003)
(0.0795939 0.00270984 -0.00273232)
(0.0914546 -0.00258376 -0.00237845)
(0.0909781 -0.0012806 -0.00228448)
(0.0899738 -0.000719501 -0.00224289)
(0.0894746 -0.000313746 -0.00220575)
(0.0894804 0.000199427 -0.00220787)
(0.0899906 0.000616562 -0.00224864)
(0.0909938 0.00118766 -0.00229427)
(0.0914888 0.00250658 -0.00237955)
(0.0797061 -0.00274951 -0.00272776)
(0.0781954 0.00320199 -0.00323662)
(0.0898693 -0.00250052 -0.00333396)
(0.0904629 -0.00092015 -0.00323266)
(0.0897077 -0.000687826 -0.0031146)
(0.0891955 -0.000328974 -0.00306919)
(0.0892053 0.000156814 -0.0030737)
(0.0897544 0.000537117 -0.00312065)
(0.0904927 0.000791388 -0.00325007)
(0.0899193 0.0024036 -0.00333997)
(0.0783919 -0.003266 -0.00323779)
(0.0774453 0.00309879 -0.00314925)
(0.0888748 -0.00234897 -0.00353461)
(0.0902651 -0.000599803 -0.00348323)
(0.0896994 -0.000684372 -0.00327201)
(0.0891713 -0.000338169 -0.00322202)
(0.0891919 9.60146e-05 -0.00322483)
(0.0897964 0.000471337 -0.00327072)
(0.0903416 0.000419022 -0.00349692)
(0.0889661 0.00222333 -0.0035425)
(0.0777561 -0.00319073 -0.00315359)
(0.0767907 0.00277789 -0.00284808)
(0.0881268 -0.00219173 -0.00338407)
(0.0901225 -0.000354045 -0.00346033)
(0.0896881 -0.000693623 -0.00317032)
(0.0891621 -0.000338569 -0.00312286)
(0.0891959 1.37866e-05 -0.00312242)
(0.0898404 0.000401735 -0.00315354)
(0.0902648 0.000101992 -0.00346416)
(0.0882718 0.00201936 -0.00338849)
(0.0772577 -0.0029055 -0.00285316)
(0.0760694 0.00240201 -0.00249744)
(0.0874506 -0.00204806 -0.00310871)
(0.0899264 -0.000192305 -0.00331624)
(0.0895737 -0.000726049 -0.0029799)
(0.0890761 -0.000343021 -0.00294201)
(0.089125 -8.67128e-05 -0.00294219)
(0.0897653 0.000333862 -0.00295793)
(0.0901447 -0.000164777 -0.00331981)
(0.0876541 0.00180481 -0.00311912)
(0.0767337 -0.00257288 -0.00249859)
(0.0753064 0.00203642 -0.00216487)
(0.086833 -0.00192603 -0.00280173)
(0.089669 -0.00011215 -0.00314246)
(0.0893655 -0.00078801 -0.00278567)
(0.0889178 -0.000363219 -0.00276323)
(0.088985 -0.000202154 -0.0027618)
(0.0896089 0.000266841 -0.00275007)
(0.0899824 -0.000368201 -0.00314358)
(0.0871783 0.00159812 -0.00279287)
(0.076237 -0.00226904 -0.00216507)
(0.0745233 0.00170157 -0.00187217)
(0.0862838 -0.00182605 -0.0025346)
(0.0894013 -9.55572e-05 -0.00296097)
(0.089134 -0.000876817 -0.0025937)
(0.0887493 -0.000407526 -0.00258561)
(0.0888388 -0.000342189 -0.00258644)
(0.0894159 0.000185425 -0.00256425)
(0.0898424 -0.000519589 -0.00296509)
(0.0867526 0.00139677 -0.00247015)
(0.0758098 -0.00200749 -0.00186721)
(0.073706 0.00140126 -0.00162748)
(0.0857835 -0.00175311 -0.0023071)
(0.0891191 -0.0001277 -0.00279276)
(0.0888629 -0.000989592 -0.0024117)
(0.0885547 -0.00048448 -0.00241542)
(0.0886789 -0.000520746 -0.00242511)
(0.0892266 7.51186e-05 -0.0024094)
(0.0897399 -0.00069787 -0.00281868)
(0.0863882 0.00116715 -0.00231817)
(0.0754411 -0.0017806 -0.00159919)
(0.0728472 0.00112293 -0.00142462)
(0.0853094 -0.00172357 -0.00206054)
(0.0887997 -0.000221258 -0.00263984)
(0.0885433 -0.00113354 -0.00224517)
(0.088323 -0.000601153 -0.0022579)
(0.088493 -0.000729585 -0.00227323)
(0.0890373 -6.68e-05 -0.00225202)
(0.0896434 -0.000891575 -0.00266794)
(0.08616 0.000932029 -0.00217554)
(0.0751395 -0.00161759 -0.00138712)
(0.0719193 0.00085085 -0.00125218)
(0.0848245 -0.0017434 -0.00182707)
(0.0884451 -0.000379731 -0.00246555)
(0.0881949 -0.00132206 -0.00207652)
(0.088073 -0.000770616 -0.00209346)
(0.0883051 -0.00097192 -0.00210952)
(0.0888348 -0.000251127 -0.00208227)
(0.0895604 -0.00105004 -0.00246993)
(0.0859994 0.000702081 -0.00189037)
(0.0749479 -0.00151408 -0.00122304)
(0.0708841 0.000571804 -0.00110224)
(0.0843132 -0.00182376 -0.0016213)
(0.0880375 -0.000609401 -0.00229256)
(0.0878102 -0.00157062 -0.00192359)
(0.0877985 -0.00101019 -0.00194197)
(0.0881147 -0.00126604 -0.00195735)
(0.0886548 -0.000494624 -0.0019156)
(0.0894921 -0.00122456 -0.00227632)
(0.0858775 0.00045622 -0.00162951)
(0.07488 -0.00143643 -0.00107289)
(0.0696847 0.000275502 -0.000972041)
(0.0837657 -0.00198315 -0.00144403)
(0.0875797 -0.000927561 -0.00213344)
(0.0873998 -0.0018975 -0.00179278)
(0.0875129 -0.00133944 -0.00181065)
(0.0879377 -0.00163171 -0.00182491)
(0.0885022 -0.00081515 -0.00176866)
(0.0894652 -0.0014567 -0.00210767)
(0.0858402 0.000185337 -0.00142008)
(0.0749382 -0.0013762 -0.000926074)
(0.0682512 -5.14194e-05 -0.000855433)
(0.0831668 -0.00223649 -0.00129337)
(0.0870658 -0.00135091 -0.00198963)
(0.0869625 -0.00232836 -0.00168106)
(0.0872203 -0.00178506 -0.00169579)
(0.0877814 -0.00209665 -0.00170956)
(0.0883938 -0.00123504 -0.00164295)
(0.0895045 -0.00176206 -0.00195944)
(0.0858918 -0.000125206 -0.00124969)
(0.0751249 -0.00134291 -0.000787555)
(0.0664946 -0.000422383 -0.000746698)
(0.0824804 -0.00260455 -0.001162)
(0.0864802 -0.0019085 -0.00185714)
(0.0864921 -0.00289681 -0.00158471)
(0.0869208 -0.00238059 -0.00159168)
(0.0876526 -0.00269365 -0.00160672)
(0.0883483 -0.00178347 -0.00153352)
(0.0896331 -0.00216791 -0.00182802)
(0.0860815 -0.000495638 -0.00111024)
(0.0754703 -0.00134349 -0.000656804)
(0.0643049 -0.000852244 -0.000638931)
(0.081651 -0.00311734 -0.00103992)
(0.0858034 -0.00264122 -0.00172693)
(0.0859782 -0.00364344 -0.0014973)
(0.0866083 -0.00316809 -0.0014924)
(0.0875558 -0.00346357 -0.00151099)
(0.0883838 -0.00249815 -0.00143396)
(0.0898776 -0.00270582 -0.00170638)
(0.0864511 -0.000950126 -0.000990464)
(0.0760143 -0.00138708 -0.000530651)
(0.0615447 -0.00135462 -0.000522622)
(0.0805958 -0.00381042 -0.000913835)
(0.0850048 -0.00360247 -0.00158793)
(0.0854003 -0.00462026 -0.00141146)
(0.0862718 -0.00420021 -0.00139129)
(0.087494 -0.00445886 -0.00141433)
(0.0885187 -0.00342855 -0.00133719)
(0.0902668 -0.00341746 -0.00158747)
(0.0870525 -0.0015196 -0.000881115)
(0.0768114 -0.00148486 -0.000403462)
(0.0580433 -0.00193848 -0.000383469)
(0.0791818 -0.00472208 -0.00076818)
(0.0840387 -0.00485823 -0.00142873)
(0.084732 -0.00589291 -0.00131703)
(0.0858901 -0.00554287 -0.00128139)
(0.0874595 -0.00574677 -0.00130944)
(0.0887698 -0.00463978 -0.00123552)
(0.0908347 -0.00435898 -0.00146345)
(0.0879459 -0.00224477 -0.000772403)
(0.0779353 -0.00165117 -0.000266969)
(0.0535955 -0.00260061 -0.000201292)
(0.0772132 -0.00588705 -0.000581524)
(0.0828374 -0.00648331 -0.00123531)
(0.0839364 -0.00754115 -0.00119939)
(0.085433 -0.00727773 -0.00115214)
(0.0874404 -0.00741383 -0.00118436)
(0.0891501 -0.00621853 -0.0011183)
(0.0916211 -0.0056078 -0.0013241)
(0.089206 -0.00318199 -0.000654032)
(0.079482 -0.0019079 -0.000111335)
(0.0479744 -0.00331207 4.56945e-05)
(0.0743998 -0.00732137 -0.000326259)
(0.0812836 -0.00855392 -0.00098577)
(0.0829499 -0.00965993 -0.00104103)
(0.0848475 -0.00950394 -0.000991092)
(0.0873969 -0.00957136 -0.00102601)
(0.0896594 -0.00828124 -0.000972324)
(0.0926703 -0.00727308 -0.00115537)
(0.0909252 -0.00441271 -0.000511829)
(0.0815835 -0.00228674 7.76999e-05)
(0.0409724 -0.00399586 0.000372397)
(0.0703478 -0.00898702 2.63565e-05)
(0.0792111 -0.0111193 -0.000645817)
(0.0816769 -0.0123601 -0.000815128)
(0.0840538 -0.0123413 -0.000778472)
(0.0872641 -0.0123623 -0.000813478)
(0.0902801 -0.0109866 -0.000777731)
(0.094025 -0.00951354 -0.000939873)
(0.0932235 -0.00605942 -0.000328382)
(0.0844201 -0.00283994 0.000318163)
(0.0324758 -0.00449795 0.000771724)
(0.0645667 -0.0107441 0.000491117)
(0.0762589 -0.0141467 -0.000191262)
(0.0799536 -0.0157417 -0.00048802)
(0.0829225 -0.0159345 -0.000490939)
(0.086917 -0.0159713 -0.000524712)
(0.0909468 -0.0145558 -0.000508127)
(0.0957185 -0.0125681 -0.000652279)
(0.0962554 -0.00831325 -7.80047e-05)
(0.0882674 -0.00364689 0.000636702)
(0.0225875 -0.00455127 0.00117439)
(0.0565262 -0.01228 0.00104024)
(0.0718567 -0.017422 0.000397785)
(0.0774434 -0.0198361 -1.71789e-05)
(0.0812385 -0.02045 -9.16187e-05)
(0.0861564 -0.020637 -0.000129029)
(0.0915213 -0.0192966 -0.000130805)
(0.0977579 -0.016803 -0.000260998)
(0.100238 -0.0114967 0.000273234)
(0.0935228 -0.0048638 0.00106906)
(0.0118183 -0.00371392 0.00134995)
(0.0458698 -0.012995 0.001532)
(0.0651893 -0.0204135 0.00113491)
(0.0735237 -0.0245037 0.00067481)
(0.0786203 -0.0260651 0.000481269)
(0.0846482 -0.0266857 0.000409826)
(0.0917103 -0.0256525 0.000394288)
(0.100046 -0.0227943 0.000280247)
(0.105424 -0.0161558 0.000775571)
(0.100981 -0.00670685 0.00167397)
(0.00122026 -0.00123391 0.00120325)
(0.0324405 -0.0119639 0.00166059)
(0.0549448 -0.0221823 0.0018901)
(0.0669425 -0.0292004 0.00167143)
(0.0743049 -0.0327882 0.00136281)
(0.0818819 -0.034482 0.00117234)
(0.0910808 -0.0342239 0.00111505)
(0.102396 -0.0314619 0.00102128)
(0.112217 -0.0233755 0.00149949)
(0.111705 -0.00991033 0.0025323)
(-0.0035857 0.00193953 0.00168462)
(0.0183683 -0.00825315 0.00203831)
(0.0405395 -0.021439 0.00276251)
(0.0560745 -0.0329151 0.00293845)
(0.0668097 -0.0403446 0.00263808)
(0.0767334 -0.044465 0.00227325)
(0.0885174 -0.0459096 0.00210052)
(0.103855 -0.044229 0.00202132)
(0.12034 -0.0352046 0.00252168)
(0.129549 -0.0150437 0.00377328)
(-0.00626865 0.000222379 0.000592257)
(0.00072888 -0.00482749 0.00222679)
(0.0199079 -0.0172411 0.00418249)
(0.0384682 -0.0327243 0.00503498)
(0.0538395 -0.0461199 0.00472965)
(0.067769 -0.0557357 0.00400673)
(0.0831986 -0.061553 0.00351525)
(0.104063 -0.0633473 0.00332683)
(0.129934 -0.0562006 0.00396495)
(0.156922 -0.0282537 0.00559284)
(-0.011777 -0.004087 -0.00188867)
(-0.0138806 -0.0134968 -0.00195906)
(-0.00350248 -0.0223712 0.00107601)
(0.0125704 -0.0334069 0.00469111)
(0.0298747 -0.0482555 0.00655779)
(0.0481596 -0.0643289 0.00661696)
(0.0676302 -0.0797281 0.00579737)
(0.096539 -0.0895958 0.0052279)
(0.129537 -0.100961 0.00552526)
(0.217534 -0.0467145 0.00812594)
(0.0965691 -0.0106398 0.00180342)
(0.101394 -0.0013595 0.00135494)
(0.10095 -0.00122012 0.00145067)
(0.100673 -0.000460269 0.00142186)
(0.100628 -0.000113467 0.00143457)
(0.100628 0.000101388 0.00143447)
(0.100674 0.000449481 0.00142144)
(0.100952 0.0012114 0.00144948)
(0.1014 0.00135007 0.0013551)
(0.0965724 0.0106922 0.00180884)
(0.0952186 -0.00519154 0.00251082)
(0.10843 -0.00242475 0.00241629)
(0.106193 -0.00199931 0.00237674)
(0.104991 -0.00081017 0.00231559)
(0.10475 -0.000249792 0.00234697)
(0.104752 0.000216928 0.0023469)
(0.104995 0.000780133 0.00231449)
(0.106199 0.00196835 0.0023723)
(0.108441 0.00237471 0.00241209)
(0.0952142 0.00523572 0.00251645)
(0.0935594 -0.000128116 0.00256411)
(0.11062 -0.00286013 0.00283911)
(0.108898 -0.00166756 0.00282689)
(0.107323 -0.000698408 0.00274526)
(0.106934 -0.000284761 0.00278017)
(0.106938 0.000213013 0.00277846)
(0.107333 0.000632877 0.00274044)
(0.108905 0.00160943 0.00281743)
(0.110617 0.00280928 0.0028394)
(0.0935953 0.000161651 0.00256565)
(0.0914097 0.00235748 0.00254938)
(0.109987 -0.00285539 0.00282122)
(0.108996 -0.00115446 0.00300818)
(0.10758 -0.00058336 0.00297038)
(0.107139 -0.000293566 0.0030028)
(0.107148 0.000178386 0.00299871)
(0.107604 0.00047758 0.00296789)
(0.109027 0.00106421 0.00298787)
(0.109983 0.00277906 0.00281196)
(0.0914996 -0.00235809 0.00254086)
(0.0897945 0.0033009 0.00244897)
(0.108852 -0.00279075 0.00274104)
(0.108319 -0.000793741 0.00284491)
(0.107153 -0.000575034 0.0028668)
(0.106692 -0.000306744 0.0029003)
(0.106707 0.000144173 0.00290052)
(0.107181 0.000421569 0.00287451)
(0.108375 0.000657314 0.00282068)
(0.108888 0.00269518 0.00273453)
(0.0899522 -0.00338087 0.00242608)
(0.0887589 0.00348574 0.00227496)
(0.107851 -0.00278064 0.00271208)
(0.107891 -0.000545253 0.00259945)
(0.106901 -0.000610026 0.00265167)
(0.106415 -0.000316386 0.00267444)
(0.106433 9.88738e-05 0.00267494)
(0.106925 0.000402989 0.00265129)
(0.107965 0.000358756 0.00257969)
(0.107898 0.00265712 0.0027107)
(0.0890335 -0.00363253 0.00224325)
(0.0879537 0.00331518 0.00209029)
(0.107023 -0.0027579 0.00266502)
(0.107635 -0.000347457 0.00245345)
(0.106785 -0.0006588 0.00252565)
(0.106279 -0.000316241 0.00252549)
(0.106303 2.75874e-05 0.00251944)
(0.106814 0.000387075 0.00250057)
(0.107727 0.000100848 0.00244311)
(0.107094 0.00258712 0.00265991)
(0.0883887 -0.00350944 0.00205378)
(0.0871991 0.00301441 0.00190941)
(0.106307 -0.00271923 0.0025946)
(0.107443 -0.000216557 0.00235166)
(0.106716 -0.000728241 0.00245847)
(0.106205 -0.00031383 0.00243091)
(0.106237 -6.90807e-05 0.00242592)
(0.106779 0.000376872 0.00241846)
(0.107578 -0.000102267 0.00234571)
(0.106405 0.0025166 0.00261771)
(0.0878369 -0.00326447 0.00187016)
(0.0864775 0.0026756 0.00174041)
(0.105681 -0.00268126 0.0025173)
(0.107296 -0.00014936 0.00227229)
(0.106676 -0.000823323 0.00241672)
(0.106166 -0.000319903 0.00236946)
(0.106213 -0.000189297 0.00236281)
(0.106785 0.000358532 0.00237147)
(0.107487 -0.000264074 0.00226314)
(0.10574 0.00235851 0.00249453)
(0.087444 -0.002963 0.00170604)
(0.0857867 0.0023698 0.00158279)
(0.105134 -0.00264979 0.0024291)
(0.107175 -0.00013793 0.00219291)
(0.106632 -0.000939546 0.00237679)
(0.106135 -0.000345037 0.00230476)
(0.106201 -0.000335775 0.00229674)
(0.106831 0.0003223 0.00233903)
(0.107446 -0.000419083 0.00218538)
(0.105272 0.00216967 0.00235326)
(0.0871282 -0.00266739 0.00155766)
(0.0850917 0.00209006 0.00142693)
(0.104625 -0.00263754 0.0023378)
(0.107082 -0.000180363 0.00210337)
(0.10661 -0.00107943 0.00232085)
(0.106133 -0.000393842 0.00222389)
(0.106221 -0.000499894 0.00221159)
(0.106896 0.000283238 0.00231116)
(0.107467 -0.000558412 0.00208623)
(0.104877 0.0020682 0.00231734)
(0.0869132 -0.00254905 0.00140524)
(0.0843604 0.00177136 0.00127824)
(0.104122 -0.00263138 0.00223059)
(0.106993 -0.000273278 0.00203858)
(0.106616 -0.0012439 0.00227228)
(0.106168 -0.000476285 0.00215113)
(0.106286 -0.000688748 0.00213669)
(0.106986 0.000209667 0.00226531)
(0.107526 -0.000679648 0.00200071)
(0.104425 0.00192803 0.00225439)
(0.086849 -0.00243648 0.00127655)
(0.0835394 0.00144544 0.00114282)
(0.10367 -0.00263698 0.00210858)
(0.106886 -0.000418116 0.00197492)
(0.106625 -0.00144027 0.00221998)
(0.106222 -0.00060677 0.00207979)
(0.106378 -0.000918199 0.00206455)
(0.107126 6.64836e-05 0.00221749)
(0.107613 -0.000827391 0.00192722)
(0.104081 0.00167124 0.00209043)
(0.086861 -0.00218947 0.00117737)
(0.0825888 0.00112232 0.00102337)
(0.103249 -0.00268895 0.00199399)
(0.106772 -0.000619534 0.00191103)
(0.106641 -0.00168464 0.00216701)
(0.106299 -0.000797267 0.00201332)
(0.106502 -0.00119625 0.00199526)
(0.107301 -0.000136244 0.00216896)
(0.107749 -0.00101788 0.00186023)
(0.103942 0.00140846 0.00194836)
(0.0869458 -0.00199073 0.0010902)
(0.0814723 0.0007959 0.000920888)
(0.102831 -0.00280725 0.00189574)
(0.106632 -0.000891405 0.00185731)
(0.106646 -0.00199332 0.0021198)
(0.106386 -0.00106552 0.00195876)
(0.10665 -0.00153816 0.00193194)
(0.107522 -0.000401894 0.00211999)
(0.107952 -0.00124818 0.00180142)
(0.103951 0.00114951 0.00185054)
(0.0871366 -0.00185573 0.00101868)
(0.0801463 0.000457811 0.000835048)
(0.102378 -0.00300152 0.00181046)
(0.106445 -0.00125594 0.0018116)
(0.106629 -0.00238816 0.00207621)
(0.106475 -0.00143488 0.00191406)
(0.106822 -0.00196306 0.00187542)
(0.107793 -0.000752128 0.0020764)
(0.108241 -0.00154112 0.00175053)
(0.104127 0.000859346 0.00177333)
(0.0874395 -0.00177203 0.000963963)
(0.0785438 9.36243e-05 0.00076934)
(0.101849 -0.00328778 0.00173628)
(0.1062 -0.00173892 0.00177654)
(0.106581 -0.00289527 0.00203997)
(0.106562 -0.00193389 0.00187995)
(0.107021 -0.0024956 0.00182773)
(0.108121 -0.00121181 0.0020386)
(0.108625 -0.00191642 0.00170913)
(0.104469 0.000518048 0.00171273)
(0.0879076 -0.0017359 0.000926687)
(0.0765826 -0.00031361 0.00072914)
(0.101204 -0.00369112 0.0016779)
(0.105879 -0.00237482 0.0017564)
(0.106492 -0.00354816 0.00201486)
(0.106646 -0.00259847 0.00185992)
(0.107254 -0.0031689 0.0017938)
(0.108518 -0.00181436 0.00200816)
(0.109129 -0.00240061 0.00168033)
(0.105006 0.00010089 0.00166719)
(0.0885923 -0.00174645 0.000909562)
(0.0741681 -0.000781694 0.000724643)
(0.100379 -0.00424072 0.00164406)
(0.105469 -0.00320642 0.00175604)
(0.106356 -0.00438943 0.00200815)
(0.106728 -0.00347392 0.00185948)
(0.10753 -0.00402577 0.00177719)
(0.109004 -0.00260286 0.00198992)
(0.109784 -0.0030281 0.00166844)
(0.105781 -0.000419602 0.00163996)
(0.0895609 -0.00180744 0.000917813)
(0.0711848 -0.00132409 0.000768762)
(0.0993017 -0.004973 0.00165165)
(0.104953 -0.00428753 0.0017864)
(0.106162 -0.00547303 0.0020315)
(0.106809 -0.00461704 0.00188836)
(0.107864 -0.00512283 0.00178741)
(0.109606 -0.00363308 0.00199103)
(0.110635 -0.00384566 0.00168142)
(0.106857 -0.00107812 0.00163853)
(0.0908997 -0.00192917 0.000959348)
(0.0675082 -0.00194832 0.000886879)
(0.097852 -0.00592424 0.00172493)
(0.10431 -0.00568087 0.00185912)
(0.105899 -0.00686562 0.00209371)
(0.106888 -0.00609823 0.00195799)
(0.108267 -0.0065332 0.00183487)
(0.110353 -0.00497929 0.00202135)
(0.111738 -0.00491808 0.00172989)
(0.108321 -0.00192336 0.00167343)
(0.0927264 -0.00212704 0.00104647)
(0.062995 -0.00265083 0.00110765)
(0.0958811 -0.00711908 0.0018894)
(0.103511 -0.00746137 0.00201047)
(0.105561 -0.00864954 0.00221091)
(0.106961 -0.00800384 0.00208532)
(0.108755 -0.00835348 0.00193655)
(0.111286 -0.00674162 0.0020976)
(0.113166 -0.00633861 0.00182686)
(0.110294 -0.00302492 0.00176101)
(0.0952001 -0.00242798 0.00119671)
(0.057501 -0.00340221 0.00145116)
(0.093187 -0.00856421 0.00217904)
(0.102463 -0.00968751 0.00225795)
(0.105126 -0.0109186 0.00241167)
(0.107012 -0.0104386 0.00229247)
(0.10933 -0.0107102 0.00211528)
(0.112442 -0.00905974 0.00224182)
(0.115013 -0.0082447 0.00199201)
(0.112938 -0.00448827 0.00192409)
(0.0985464 -0.00287487 0.00143612)
(0.0508864 -0.00412328 0.00192421)
(0.0894755 -0.0102171 0.00262492)
(0.10106 -0.0123849 0.00263454)
(0.104552 -0.0137827 0.00272801)
(0.107001 -0.0135345 0.0026102)
(0.109976 -0.0137727 0.00240149)
(0.113853 -0.0121295 0.00248222)
(0.117388 -0.0108449 0.00225366)
(0.11648 -0.006478 0.00219667)
(0.103099 -0.00353738 0.00180151)
(0.0430543 -0.00466613 0.00247459)
(0.0843499 -0.0119399 0.00321552)
(0.0990211 -0.0155281 0.00320378)
(0.10374 -0.0173506 0.0032144)
(0.106854 -0.017459 0.0030834)
(0.110637 -0.0177708 0.00284047)
(0.115528 -0.0162361 0.00286157)
(0.120426 -0.0144684 0.00265565)
(0.121243 -0.00927822 0.00262583)
(0.109349 -0.004552 0.00234879)
(0.0340141 -0.00476641 0.00292108)
(0.0773573 -0.0134405 0.00387038)
(0.0958591 -0.0189163 0.00398814)
(0.102452 -0.0216912 0.00395784)
(0.106421 -0.0224245 0.00378073)
(0.111166 -0.0230153 0.00348742)
(0.117391 -0.0217951 0.00343303)
(0.124212 -0.019647 0.00325076)
(0.127652 -0.0133788 0.00327663)
(0.118219 -0.00611366 0.00315345)
(0.0240645 -0.00408864 0.00293069)
(0.0679292 -0.0141927 0.0043249)
(0.090762 -0.0220725 0.00495461)
(0.100204 -0.0267093 0.00506682)
(0.105461 -0.028648 0.00480952)
(0.111343 -0.0299107 0.00441203)
(0.119286 -0.0293996 0.00425804)
(0.128818 -0.02726 0.0041049)
(0.136373 -0.0197669 0.00424898)
(0.130945 -0.00890098 0.00434552)
(0.0146549 -0.00223396 0.00281497)
(0.056262 -0.0135266 0.00466332)
(0.0828427 -0.024358 0.0060991)
(0.0961074 -0.032105 0.00659588)
(0.103419 -0.0363049 0.00627158)
(0.11066 -0.0389564 0.00566706)
(0.120618 -0.0398682 0.00534773)
(0.133821 -0.0386728 0.00521799)
(0.147628 -0.0303931 0.00559985)
(0.151724 -0.0133546 0.00606425)
(0.00827011 -0.000664415 0.00274938)
(0.0428375 -0.0112752 0.00526937)
(0.0712452 -0.024583 0.00752147)
(0.0889769 -0.0366121 0.00858428)
(0.0996419 -0.0449386 0.00823382)
(0.108836 -0.0506126 0.00731443)
(0.121013 -0.0542601 0.00670939)
(0.13901 -0.0559305 0.00656109)
(0.161983 -0.0492246 0.00743488)
(0.183194 -0.0254142 0.00856145)
(0.00509929 -0.00255889 0.000152497)
(0.0299355 -0.0111974 0.00429406)
(0.0567298 -0.0247002 0.00767243)
(0.07726 -0.039299 0.00955811)
(0.0916741 -0.0523492 0.00958841)
(0.103753 -0.0634426 0.00852874)
(0.117355 -0.0735014 0.00756127)
(0.141468 -0.0809829 0.00730586)
(0.170645 -0.0900394 0.00877114)
(0.249533 -0.0417158 0.0117836)
(0.0959781 -0.0110547 0.0013472)
(0.10095 -0.00145492 0.00121434)
(0.100652 -0.0011558 0.0011503)
(0.100408 -0.000455936 0.00115918)
(0.100367 -0.000112082 0.00116391)
(0.100367 0.000101482 0.00116374)
(0.100409 0.000446647 0.00115865)
(0.100654 0.00114875 0.00114951)
(0.100955 0.00144796 0.00121438)
(0.0959814 0.0111282 0.0013494)
(0.0938314 -0.00563054 0.00193911)
(0.106194 -0.00238306 0.00198527)
(0.103675 -0.00189608 0.00188382)
(0.102502 -0.000795355 0.00188293)
(0.102266 -0.00024126 0.00188446)
(0.102268 0.00021286 0.00188373)
(0.102507 0.000770288 0.00188117)
(0.103686 0.00186678 0.00187879)
(0.106213 0.00232704 0.00198622)
(0.0938227 0.00568388 0.00194195)
(0.092265 -0.000378416 0.00164584)
(0.108898 -0.00284651 0.0016392)
(0.106066 -0.00160169 0.00157541)
(0.10443 -0.000672709 0.00157038)
(0.104077 -0.000276552 0.00157148)
(0.104083 0.000208846 0.00156896)
(0.104447 0.000611324 0.00156602)
(0.106086 0.00153811 0.00156465)
(0.108884 0.00279309 0.00164017)
(0.0923126 0.000424101 0.00164531)
(0.0909353 0.00226467 0.00123525)
(0.108992 -0.00304187 0.00110947)
(0.107228 -0.00110525 0.001062)
(0.1056 -0.000528902 0.00107199)
(0.105227 -0.000293489 0.00108133)
(0.105235 0.000185524 0.00108105)
(0.105628 0.000436384 0.00107272)
(0.107263 0.00100232 0.00104278)
(0.10899 0.00296393 0.0011082)
(0.091029 -0.00225677 0.00123283)
(0.0903936 0.00320125 0.000853973)
(0.10831 -0.00289282 0.000728685)
(0.10781 -0.00069052 0.000628553)
(0.10632 -0.000500761 0.000683172)
(0.105927 -0.000316624 0.000698781)
(0.105938 0.000163556 0.000698607)
(0.106371 0.000372252 0.000684282)
(0.107846 0.000565149 0.000626695)
(0.108322 0.00277448 0.00072557)
(0.0905595 -0.00327441 0.000845715)
(0.090158 0.00343722 0.000506135)
(0.107881 -0.00266465 0.000455631)
(0.108279 -0.000366658 0.000280576)
(0.10691 -0.000533854 0.00036747)
(0.106473 -0.000325636 0.000381058)
(0.106494 0.000115609 0.00037705)
(0.106992 0.000346692 0.000367266)
(0.108314 0.000221382 0.000307929)
(0.107914 0.00251212 0.000451385)
(0.0904259 -0.0035859 0.00049064)
(0.0899634 0.00339634 0.000225068)
(0.107624 -0.00254293 0.000225948)
(0.108711 -0.00012663 7.43305e-06)
(0.10744 -0.000603708 0.000115504)
(0.106962 -0.000316681 0.000118469)
(0.106988 3.08062e-05 0.000118482)
(0.107548 0.000342264 0.000116302)
(0.108774 -7.29565e-05 4.09529e-05)
(0.107679 0.00235821 0.000219366)
(0.0903718 -0.00359452 0.000205198)
(0.0897085 0.00322686 1.62549e-05)
(0.107426 -0.00246163 5.36924e-05)
(0.109073 3.431e-05 -0.000193011)
(0.107905 -0.000696094 -8.40651e-05)
(0.107397 -0.000301349 -9.24604e-05)
(0.107434 -8.39912e-05 -9.27475e-05)
(0.108038 0.000352531 -7.6451e-05)
(0.109199 -0.000314826 -0.000166941)
(0.107551 0.00223975 5.10269e-05)
(0.0902618 -0.0034729 -1.51635e-05)
(0.0893714 0.00303117 -0.000124705)
(0.107275 -0.00242212 -7.08865e-05)
(0.109387 0.000134507 -0.000349197)
(0.108295 -0.000807703 -0.000227114)
(0.107785 -0.000290936 -0.000255855)
(0.107835 -0.000224795 -0.000258479)
(0.10847 0.000360896 -0.000226234)
(0.109597 -0.000533004 -0.000335512)
(0.107482 0.00211568 -6.46251e-05)
(0.0901269 -0.00329993 -0.000156892)
(0.0890115 0.00283585 -0.000220203)
(0.107129 -0.00241138 -0.00015354)
(0.109699 0.000185331 -0.00047326)
(0.108647 -0.000947766 -0.000332886)
(0.108145 -0.000293019 -0.000380541)
(0.108213 -0.000387543 -0.000384935)
(0.108873 0.000352878 -0.000344724)
(0.109989 -0.000738196 -0.00047105)
(0.107484 0.00198054 -0.00016015)
(0.0900167 -0.00311158 -0.000233027)
(0.0886009 0.00261747 -0.000293823)
(0.107001 -0.00239419 -0.000198929)
(0.109991 0.000179803 -0.000560526)
(0.10898 -0.00110357 -0.000413656)
(0.108495 -0.000315869 -0.000478506)
(0.108582 -0.000566473 -0.000480356)
(0.109273 0.00032383 -0.000428875)
(0.11038 -0.00089885 -0.000544899)
(0.10757 0.001835 -0.000218587)
(0.0899536 -0.00299026 -0.000318997)
(0.0880898 0.0023677 -0.000338411)
(0.106891 -0.00239592 -0.000223319)
(0.110267 0.000135714 -0.000632329)
(0.109289 -0.00127926 -0.000474136)
(0.108832 -0.000371713 -0.000554759)
(0.108949 -0.000772124 -0.000556146)
(0.109674 0.000260506 -0.000482219)
(0.110803 -0.00105864 -0.000602947)
(0.107698 0.0016982 -0.000232867)
(0.089931 -0.00289169 -0.000390601)
(0.0874631 0.00209433 -0.000357867)
(0.106781 -0.00242726 -0.000237153)
(0.110501 3.93973e-05 -0.000687346)
(0.109567 -0.00148356 -0.000517926)
(0.109153 -0.000474333 -0.000612593)
(0.10931 -0.00101504 -0.000615261)
(0.110075 0.000145145 -0.000521732)
(0.111237 -0.00125623 -0.000673766)
(0.107841 0.00153326 -0.000242608)
(0.0899771 -0.00273408 -0.000394922)
(0.0866915 0.00181012 -0.000361189)
(0.106668 -0.00250292 -0.000241591)
(0.110686 -0.000117222 -0.000726968)
(0.109815 -0.00172834 -0.000549823)
(0.109455 -0.00063689 -0.000656288)
(0.109665 -0.00130321 -0.000662321)
(0.110473 -2.61388e-05 -0.000549049)
(0.111683 -0.00148514 -0.000740532)
(0.108036 0.00133752 -0.000258429)
(0.0900886 -0.0025847 -0.000370565)
(0.0857524 0.00151194 -0.000348338)
(0.106527 -0.00263122 -0.000238541)
(0.110821 -0.000345672 -0.000752951)
(0.110032 -0.00203045 -0.00057105)
(0.109743 -0.000876278 -0.000687151)
(0.110019 -0.00164871 -0.000696309)
(0.110885 -0.000263196 -0.000567648)
(0.112161 -0.00174543 -0.000792423)
(0.108312 0.00111719 -0.000265621)
(0.0902901 -0.00247243 -0.000340814)
(0.0845993 0.00119457 -0.000322989)
(0.106342 -0.00282522 -0.000226183)
(0.110899 -0.000665702 -0.000762283)
(0.11022 -0.00240939 -0.000581572)
(0.110018 -0.001214 -0.000705042)
(0.110383 -0.00206887 -0.000720433)
(0.111325 -0.000584129 -0.000578006)
(0.112688 -0.00205566 -0.000831275)
(0.108699 0.0008604 -0.000267942)
(0.0906126 -0.00239671 -0.000304557)
(0.0831776 0.00084485 -0.000284899)
(0.106083 -0.00310956 -0.000200353)
(0.110914 -0.0011013 -0.000755499)
(0.110378 -0.00289015 -0.000581048)
(0.110285 -0.00167603 -0.000709612)
(0.110764 -0.00258677 -0.000733772)
(0.111808 -0.00101135 -0.000579477)
(0.113284 -0.00243488 -0.000857099)
(0.109216 0.000547857 -0.000264826)
(0.0910968 -0.00235802 -0.000262343)
(0.0814227 0.000445982 -0.000229307)
(0.105709 -0.00349985 -0.000156081)
(0.110854 -0.00168561 -0.000726468)
(0.110502 -0.0035032 -0.00056641)
(0.110544 -0.00229566 -0.000698252)
(0.111171 -0.00323276 -0.000734667)
(0.112352 -0.00157513 -0.00057056)
(0.113974 -0.00290837 -0.000868896)
(0.109899 0.000159499 -0.000255944)
(0.0917894 -0.00235899 -0.000211854)
(0.0792384 -1.5993e-05 -0.00014866)
(0.105183 -0.00402341 -8.58272e-05)
(0.110706 -0.00245775 -0.000668281)
(0.110591 -0.00428575 -0.0005329)
(0.1108 -0.00311426 -0.000666812)
(0.111616 -0.00404632 -0.000719076)
(0.112978 -0.0023148 -0.000548801)
(0.11479 -0.00350824 -0.000863896)
(0.110795 -0.000328477 -0.000238899)
(0.0927535 -0.00240352 -0.000150091)
(0.0765337 -0.000558807 -2.95782e-05)
(0.104435 -0.00469859 2.10025e-05)
(0.110455 -0.00346219 -0.000571957)
(0.11064 -0.00528366 -0.000472545)
(0.111056 -0.00418256 -0.000608874)
(0.112113 -0.0050783 -0.00068139)
(0.113712 -0.0032816 -0.000509419)
(0.115772 -0.00427772 -0.000838289)
(0.111965 -0.00094838 -0.00020945)
(0.0940708 -0.00250226 -7.14982e-05)
(0.0731656 -0.00117786 0.000146359)
(0.103397 -0.00557406 0.000182225)
(0.110094 -0.00475888 -0.000422402)
(0.110645 -0.0065561 -0.000373349)
(0.111316 -0.00556308 -0.000514645)
(0.112675 -0.0063944 -0.000612449)
(0.114587 -0.00454275 -0.000445341)
(0.116972 -0.0052759 -0.000785037)
(0.113496 -0.00174514 -0.000161034)
(0.0958546 -0.0026688 3.24687e-05)
(0.0690679 -0.00187831 0.000402062)
(0.101923 -0.00666973 0.000422676)
(0.109589 -0.00640551 -0.000197602)
(0.110603 -0.00816947 -0.000218636)
(0.111582 -0.00732966 -0.00037063)
(0.113317 -0.00807916 -0.00050018)
(0.115637 -0.00618879 -0.000345933)
(0.11846 -0.00658716 -0.000694111)
(0.115498 -0.00278216 -8.37992e-05)
(0.098257 -0.00292902 0.000174037)
(0.0641303 -0.00263121 0.000771869)
(0.0998748 -0.00796266 0.000766779)
(0.108907 -0.00844035 0.000118629)
(0.110502 -0.010197 1.20068e-05)
(0.111845 -0.00956883 -0.000157996)
(0.114045 -0.010243 -0.000326982)
(0.116904 -0.00834355 -0.000195906)
(0.120323 -0.00833481 -0.000550933)
(0.118129 -0.0041561 3.59668e-05)
(0.101497 -0.00332009 0.000370021)
(0.0583029 -0.00336121 0.00128267)
(0.0970682 -0.00942865 0.00124855)
(0.107988 -0.0108902 0.00055308)
(0.110321 -0.0127246 0.000347417)
(0.112088 -0.0123838 0.000148788)
(0.11485 -0.013029 -6.91694e-05)
(0.11842 -0.011181 2.4888e-05)