/*--------------------------------*- C++ -*----------------------------------*\
| =========                 |                                                 |
| \\      /  F ield         | OpenFOAM: The Open Source CFD Toolbox           |
|  \\    /   O peration     | Version:  4.1                                   |
|   \\  /    A nd           | Web:      www.OpenFOAM.org                      |
|    \\/     M anipulation  |                                                 |
\*---------------------------------------------------------------------------*/
FoamFile
{
    version     2.0;
    format      ascii;
    class       volScalarField;
    location    "1700";
    object      epsilon;
}
// * * * * * * * * * * * * * * * * * * * * * * * * * * * * * * * * * * * * * //

dimensions      [0 2 -3 0 0 0 0];

internalField   nonuniform List<scalar> 
12000
(
0.319756
0.311998
0.310748
0.31045
0.310376
0.310377
0.310453
0.310744
0.311851
0.319592
0.0651909
0.0637134
0.0628371
0.0623977
0.0622632
0.0622635
0.062399
0.0628431
0.0637399
0.0652582
0.0176584
0.0177509
0.0173993
0.0171587
0.0170715
0.0170717
0.0171586
0.0173959
0.0177606
0.0176806
0.00615375
0.00641093
0.00625151
0.00612888
0.00607986
0.00607971
0.00612752
0.00624127
0.00641999
0.00617622
0.00262322
0.00280012
0.00274564
0.00268559
0.00265794
0.00265775
0.0026836
0.00273321
0.0028066
0.00264255
0.00131195
0.00141656
0.0014063
0.00137642
0.00136014
0.00136015
0.00137547
0.00139847
0.00141932
0.00132394
0.000742794
0.000803226
0.000809578
0.000794224
0.000784129
0.000784228
0.000794041
0.000806314
0.000806617
0.000750035
0.00046182
0.000500025
0.000509849
0.000501285
0.00049472
0.000494908
0.000501617
0.000508892
0.000500476
0.000466274
0.00030854
0.000334507
0.000344324
0.000339198
0.000334743
0.000334923
0.000339648
0.000344528
0.000335802
0.000311858
0.00021771
0.000236815
0.00024556
0.000242275
0.000239134
0.000239324
0.000242812
0.000246327
0.000237739
0.000220759
0.000160451
0.000175856
0.000182984
0.000180681
0.00017839
0.000178632
0.000181262
0.000183887
0.000176394
0.000163465
0.00012246
0.000135366
0.00014135
0.000139694
0.000138002
0.000138194
0.000140286
0.000142315
0.00013577
0.000125549
9.61503e-05
0.000107235
0.000112439
0.000111231
0.000109946
0.000110149
0.000111829
0.00011345
0.000107744
9.94074e-05
7.72736e-05
8.69805e-05
9.16175e-05
9.07491e-05
8.98014e-05
8.99853e-05
9.13551e-05
9.26788e-05
8.76918e-05
8.07341e-05
6.33138e-05
7.20036e-05
7.61735e-05
7.55643e-05
7.48633e-05
7.508e-05
7.62195e-05
7.73684e-05
7.30039e-05
6.70496e-05
5.26922e-05
6.05569e-05
6.44663e-05
6.40518e-05
6.35622e-05
6.37764e-05
6.47541e-05
6.5749e-05
6.1892e-05
5.67446e-05
4.44147e-05
5.17616e-05
5.53774e-05
5.51284e-05
5.48233e-05
5.50549e-05
5.59042e-05
5.68324e-05
5.3438e-05
4.8895e-05
3.77879e-05
4.474e-05
4.8194e-05
4.80907e-05
4.79443e-05
4.82418e-05
4.9021e-05
4.98596e-05
4.67809e-05
4.27538e-05
3.23501e-05
3.90836e-05
4.24105e-05
4.24622e-05
4.24486e-05
4.27476e-05
4.3469e-05
4.43286e-05
4.16179e-05
3.79952e-05
2.77517e-05
3.4355e-05
3.76233e-05
3.78464e-05
3.79648e-05
3.83615e-05
3.90776e-05
3.99044e-05
3.75091e-05
3.4154e-05
2.374e-05
3.02753e-05
3.36153e-05
3.40328e-05
3.42497e-05
3.46572e-05
3.53765e-05
3.63038e-05
3.42923e-05
3.12164e-05
2.01067e-05
2.66737e-05
3.01438e-05
3.07777e-05
3.11234e-05
3.17093e-05
3.24586e-05
3.33776e-05
3.16878e-05
2.87715e-05
1.66877e-05
2.32792e-05
2.70962e-05
2.79958e-05
2.84425e-05
2.90226e-05
2.98513e-05
3.0979e-05
2.97199e-05
2.70332e-05
1.33086e-05
1.99878e-05
2.42098e-05
2.54998e-05
2.61363e-05
2.69629e-05
2.78414e-05
2.8998e-05
2.80651e-05
2.55548e-05
9.85413e-06
1.64394e-05
2.14898e-05
2.32035e-05
2.39933e-05
2.48177e-05
2.58976e-05
2.74081e-05
2.69832e-05
2.47657e-05
6.10592e-06
1.27044e-05
1.84749e-05
2.09553e-05
2.2126e-05
2.32701e-05
2.43732e-05
2.60149e-05
2.5947e-05
2.41096e-05
2.53237e-06
8.30898e-06
1.52387e-05
1.84142e-05
1.99666e-05
2.12371e-05
2.27523e-05
2.49836e-05
2.54804e-05
2.42337e-05
1.41904e-06
4.72195e-06
1.0803e-05
1.55303e-05
1.80209e-05
1.97221e-05
2.11076e-05
2.36706e-05
2.49937e-05
2.443e-05
2.32897e-06
4.19342e-06
6.2165e-06
9.52756e-06
1.36723e-05
1.72828e-05
1.93328e-05
2.26256e-05
2.49027e-05
2.54573e-05
4.92097e-06
7.16784e-06
8.16652e-06
8.20663e-06
9.00655e-06
1.1163e-05
1.45513e-05
1.94571e-05
2.42204e-05
2.70921e-05
0.311995
0.888304
0.891475
0.890907
0.890778
0.890779
0.890907
0.891489
0.888913
0.312165
0.0637098
0.0495011
0.0346152
0.0345886
0.0346115
0.0345812
0.0346111
0.0346182
0.0493209
0.0640927
0.0177478
0.00218737
0.000906486
0.000903497
0.000901148
0.000904166
0.00090282
0.000909496
0.00215
0.0178694
0.00640852
0.000324178
0.00019032
0.000177817
0.000178849
0.000176974
0.000177533
0.000184081
0.000318615
0.00646998
0.00279826
0.000125898
8.00118e-05
7.03541e-05
7.06917e-05
7.02812e-05
6.97828e-05
7.28188e-05
0.000124662
0.00282204
0.00141502
6.23564e-05
3.64267e-05
3.19162e-05
3.19426e-05
3.18257e-05
3.15087e-05
3.23249e-05
6.07885e-05
0.00141981
0.000801854
4.01173e-05
1.73983e-05
1.55664e-05
1.57407e-05
1.56011e-05
1.57211e-05
1.57532e-05
3.87512e-05
0.000802453
0.000498736
2.47532e-05
9.03238e-06
8.92274e-06
9.05375e-06
9.03488e-06
9.22257e-06
8.67142e-06
2.37429e-05
0.00049623
0.000333265
3.09284e-05
5.77796e-06
6.12529e-06
6.19865e-06
5.83458e-06
5.86154e-06
5.80799e-06
1.49985e-05
0.000332459
0.000235598
3.02704e-05
3.66002e-06
6.83683e-06
6.47927e-06
6.67016e-06
8.00868e-06
6.07134e-06
9.76094e-06
0.000235718
0.000174637
2.99753e-05
5.13558e-06
6.25988e-06
6.03181e-06
6.308e-06
6.81126e-06
5.71982e-06
6.82279e-06
0.000175376
0.000134127
2.11522e-05
5.25363e-06
8.67882e-06
8.29614e-06
7.94113e-06
1.01046e-05
8.1281e-06
4.12837e-06
0.000135458
0.000105959
2.69841e-05
6.82863e-06
7.33192e-06
7.03263e-06
6.6917e-06
8.41192e-06
7.2412e-06
6.26056e-06
0.00010791
8.56442e-05
2.21407e-05
6.70431e-06
7.75933e-06
7.76357e-06
6.97359e-06
8.73125e-06
7.99294e-06
7.67749e-06
8.81402e-05
7.05967e-05
2.12213e-05
7.74936e-06
6.26107e-06
5.96505e-06
5.74844e-06
7.06115e-06
6.1991e-06
8.02412e-06
7.36427e-05
5.90525e-05
1.71609e-05
6.19123e-06
6.612e-06
6.53278e-06
6.04385e-06
7.56715e-06
6.79444e-06
1.06932e-05
6.25686e-05
5.01576e-05
1.76774e-05
6.79421e-06
6.7188e-06
6.51496e-06
6.14059e-06
7.53142e-06
6.82747e-06
8.62712e-06
5.40192e-05
4.30108e-05
1.70974e-05
6.83789e-06
6.49906e-06
6.25208e-06
5.92448e-06
7.19808e-06
6.59178e-06
9.95307e-06
4.72608e-05
3.72448e-05
1.65377e-05
6.71467e-06
6.2042e-06
5.95787e-06
5.59984e-06
6.75478e-06
6.25751e-06
1.03053e-05
4.18928e-05
3.23855e-05
1.58941e-05
6.56214e-06
5.87808e-06
5.62709e-06
5.25039e-06
6.27255e-06
5.92029e-06
1.00184e-05
3.75856e-05
2.82329e-05
1.55313e-05
6.48185e-06
5.6002e-06
5.31403e-06
4.94321e-06
5.82655e-06
5.60852e-06
9.52845e-06
3.40683e-05
2.45571e-05
1.52741e-05
6.60441e-06
5.38903e-06
5.06976e-06
4.71751e-06
5.43112e-06
5.35894e-06
8.95065e-06
3.12093e-05
2.12438e-05
1.55009e-05
6.76289e-06
5.25312e-06
4.9048e-06
4.54367e-06
5.12903e-06
5.17069e-06
8.36068e-06
2.87715e-05
1.80687e-05
1.58425e-05
7.54803e-06
5.33965e-06
4.89821e-06
4.59541e-06
4.92475e-06
5.05805e-06
7.78792e-06
2.68448e-05
1.49812e-05
1.60213e-05
8.45061e-06
5.54288e-06
4.96676e-06
4.61726e-06
4.97878e-06
5.06342e-06
7.55725e-06
2.52305e-05
1.17544e-05
1.68057e-05
1.00898e-05
6.07164e-06
5.26088e-06
4.89644e-06
5.04126e-06
5.34363e-06
7.15967e-06
2.38966e-05
8.55405e-06
1.78268e-05
1.23342e-05
7.07961e-06
5.65903e-06
5.16841e-06
5.28057e-06
5.53762e-06
7.35983e-06
2.26429e-05
5.25855e-06
1.98416e-05
1.52091e-05
9.14118e-06
6.90834e-06
5.86688e-06
5.93876e-06
6.46408e-06
7.293e-06
2.12705e-05
3.83948e-06
2.34274e-05
2.02809e-05
1.23314e-05
8.76298e-06
7.47528e-06
7.12591e-06
7.30424e-06
1.11967e-05
2.06857e-05
4.15062e-06
2.59954e-05
2.84074e-05
2.01287e-05
1.29793e-05
9.82008e-06
9.37e-06
9.95258e-06
1.66174e-05
2.00611e-05
0.310745
0.891477
0.888215
0.887621
0.887492
0.887493
0.887621
0.888197
0.891754
0.31113
0.0628341
0.0346534
0.0121413
0.0117578
0.0116941
0.0118735
0.0119263
0.0121494
0.0345864
0.0632809
0.0173965
0.000905199
0.000319721
0.000231609
0.000220913
0.000275786
0.00028068
0.000304627
0.0008986
0.0175279
0.00624915
0.000192558
8.53044e-05
7.47517e-06
3.60423e-06
9.20431e-06
4.83773e-06
2.41092e-05
0.000192577
0.00631709
0.00274361
8.05619e-05
1.36569e-05
9.06275e-07
2.38071e-07
1.33912e-06
3.4766e-07
2.42106e-06
8.03225e-05
0.00276985
0.00140456
3.6592e-05
2.71122e-06
1.32113e-07
1.17172e-07
4.56395e-07
8.99222e-08
8.60666e-07
3.65053e-05
0.00141231
0.000807994
1.7637e-05
4.06371e-07
4.33135e-08
7.60592e-08
1.40676e-07
4.909e-08
2.22837e-07
1.75828e-05
0.000810041
0.000508372
9.36655e-06
1.55569e-07
2.8007e-08
6.31004e-08
8.47607e-08
3.26547e-08
8.40053e-08
9.1361e-06
0.000509237
0.000342936
6.21704e-06
9.5126e-08
2.52422e-08
4.27342e-08
5.19019e-08
2.1267e-08
5.26106e-08
5.54762e-06
0.000344039
0.000244251
4.08318e-06
6.22124e-08
4.41929e-08
2.95256e-08
3.1721e-08
2.05355e-08
6.30279e-08
3.43185e-06
0.000245724
0.000181687
5.87393e-06
4.63026e-08
5.17522e-08
3.18601e-08
2.14685e-08
3.92249e-08
1.1043e-07
4.40967e-06
0.000183481
0.000140054
5.72756e-06
4.22178e-08
8.76123e-08
4.47386e-08
2.26763e-08
7.22326e-08
9.82506e-08
4.03294e-06
0.000142005
0.000111161
7.77419e-06
1.05633e-07
1.01927e-07
6.66617e-08
3.08324e-08
8.62608e-08
1.48457e-07
6.88349e-06
0.000113194
9.02494e-05
7.87267e-06
1.8824e-07
1.1681e-07
6.59417e-08
6.01337e-08
1.24653e-07
1.46469e-07
5.76163e-06
9.24577e-05
7.47511e-05
8.75e-06
2.44449e-07
1.21149e-07
1.07439e-07
6.59795e-08
1.40022e-07
1.9368e-07
6.75977e-06
7.70628e-05
6.29066e-05
7.19708e-06
3.46646e-07
1.32285e-07
9.76992e-08
7.90162e-08
1.31748e-07
1.76616e-07
4.91088e-06
6.5441e-05
5.36685e-05
8.03054e-06
4.52171e-07
1.3792e-07
1.16478e-07
9.22589e-08
1.4983e-07
1.9455e-07
5.59198e-06
5.64098e-05
4.62855e-05
8.48067e-06
5.40264e-07
1.51935e-07
1.55934e-07
1.05812e-07
1.91855e-07
2.19594e-07
5.69362e-06
4.94322e-05
4.02636e-05
8.77552e-06
6.32643e-07
1.77632e-07
1.42375e-07
1.19002e-07
1.97092e-07
2.53628e-07
5.39512e-06
4.37048e-05
3.52184e-05
8.73481e-06
7.3348e-07
2.02227e-07
1.52256e-07
1.40445e-07
2.04977e-07
2.51982e-07
4.95117e-06
3.92279e-05
3.0911e-05
9.02084e-06
8.72351e-07
2.2649e-07
1.74721e-07
1.51397e-07
2.18037e-07
2.57258e-07
4.45842e-06
3.52792e-05
2.71001e-05
9.431e-06
1.04225e-06
2.53286e-07
1.9471e-07
1.62662e-07
2.25338e-07
2.6056e-07
3.94294e-06
3.22579e-05
2.37046e-05
9.87675e-06
1.28752e-06
2.88123e-07
2.13743e-07
1.76649e-07
2.31615e-07
2.65124e-07
3.47508e-06
2.93063e-05
2.05336e-05
1.04239e-05
1.65421e-06
3.58129e-07
2.3108e-07
1.86789e-07
2.41863e-07
2.73664e-07
2.99033e-06
2.71711e-05
1.76241e-05
1.16525e-05
2.11672e-06
4.62587e-07
2.88694e-07
2.13257e-07
2.58326e-07
2.86395e-07
2.61042e-06
2.47286e-05
1.4785e-05
1.25737e-05
2.97094e-06
6.67113e-07
3.1883e-07
2.36963e-07
2.67404e-07
3.14931e-07
2.17742e-06
2.31286e-05
1.20819e-05
1.33579e-05
4.69166e-06
1.01494e-06
4.60275e-07
2.89027e-07
3.43022e-07
3.3827e-07
1.91988e-06
2.06726e-05
9.37368e-06
1.42716e-05
6.9188e-06
1.72263e-06
6.35982e-07
3.9515e-07
3.79513e-07
4.81951e-07
1.51428e-06
1.90352e-05
6.97068e-06
1.60198e-05
9.73805e-06
3.07682e-06
1.19334e-06
5.93374e-07
5.6745e-07
5.45669e-07
1.77957e-06
1.58291e-05
5.51448e-06
1.81088e-05
1.40656e-05
5.57431e-06
2.23168e-06
1.17042e-06
8.08049e-07
9.30082e-07
2.23449e-06
1.31957e-05
0.310448
0.890907
0.887621
0.886994
0.88686
0.886845
0.887004
0.887626
0.891176
0.310851
0.0623943
0.0345905
0.011915
0.0117856
0.011927
0.0121477
0.0117861
0.0118663
0.0345263
0.0628415
0.0171552
0.000904526
0.000281022
0.000259625
0.000313804
0.000366621
0.000265232
0.000261036
0.000897104
0.017284
0.00612627
0.00017878
1.36899e-05
6.65401e-06
1.92016e-05
7.67912e-05
0.000100983
1.26246e-05
0.00017887
0.00619002
0.00268331
7.07257e-05
2.57301e-06
3.68207e-08
4.95404e-07
2.23663e-06
2.95445e-05
1.26112e-06
7.12878e-05
0.00270784
0.00137445
3.22882e-05
8.04242e-07
3.86743e-10
9.58797e-09
2.65365e-08
4.41803e-08
3.40386e-07
3.225e-05
0.00138222
0.000792417
1.60321e-05
1.99369e-07
1.17408e-10
4.52893e-10
4.09214e-09
6.99913e-10
7.82809e-08
1.5776e-05
0.000794901
0.000499702
9.0493e-06
9.39458e-08
1.48056e-10
2.32623e-10
1.92953e-09
9.8726e-11
3.44362e-08
8.64475e-06
0.00050125
0.00033764
6.40266e-06
5.70607e-08
1.43167e-10
1.90018e-10
7.70689e-10
5.58508e-11
2.60372e-08
5.79416e-06
0.000339528
0.000240753
7.78503e-06
3.81238e-08
1.36747e-10
1.72135e-10
9.28137e-10
1.1595e-10
3.48863e-08
5.08886e-06
0.000243132
0.00017915
6.84848e-06
2.67026e-08
1.63741e-10
1.04373e-10
5.03103e-10
2.13791e-10
5.10594e-08
6.16653e-06
0.000181972
0.00013813
1.00205e-05
8.94427e-08
4.43054e-10
1.72346e-10
2.87618e-10
3.69833e-10
7.01435e-08
5.20602e-06
0.000141217
0.000109589
8.3576e-06
8.91519e-08
5.84727e-10
1.48101e-10
1.952e-10
3.7328e-10
5.36662e-08
6.51243e-06
0.000112931
8.89643e-05
8.9146e-06
1.87089e-07
2.68246e-09
1.13658e-10
1.21116e-10
9.65725e-10
6.65164e-08
6.14689e-06
9.25857e-05
7.36602e-05
7.59624e-06
1.80416e-07
2.79902e-09
4.08899e-10
1.09311e-10
9.28035e-10
7.3748e-08
5.19858e-06
7.73937e-05
6.19673e-05
7.70572e-06
2.0504e-07
3.86189e-09
5.02981e-10
2.22265e-10
1.08432e-09
7.36993e-08
4.84597e-06
6.59135e-05
5.28527e-05
8.19397e-06
2.6709e-07
5.62351e-09
7.72771e-10
6.04023e-10
1.23836e-09
7.52848e-08
5.10216e-06
5.69028e-05
4.55644e-05
8.39176e-06
3.46445e-07
9.18762e-09
9.41122e-10
6.50812e-10
1.66477e-09
7.55472e-08
4.94275e-06
4.99455e-05
3.96196e-05
8.48124e-06
4.58681e-07
1.43828e-08
1.30849e-09
7.52645e-10
2.0005e-09
7.19077e-08
4.5517e-06
4.41553e-05
3.46462e-05
8.45931e-06
5.73135e-07
2.40077e-08
1.96114e-09
9.78705e-10
2.51584e-09
6.63995e-08
4.10505e-06
3.96693e-05
3.03991e-05
8.62075e-06
6.85334e-07
3.5162e-08
2.57157e-09
1.37793e-09
2.77358e-09
5.94488e-08
3.60961e-06
3.56063e-05
2.66688e-05
8.97515e-06
8.79239e-07
5.50579e-08
5.42655e-09
1.78556e-09
3.23304e-09
5.23909e-08
3.17554e-06
3.25799e-05
2.33257e-05
9.27669e-06
1.05421e-06
8.22551e-08
6.19561e-09
2.75295e-09
3.64192e-09
4.48372e-08
2.71876e-06
2.94572e-05
2.02546e-05
9.79551e-06
1.39523e-06
1.27286e-07
1.66593e-08
3.06744e-09
4.2869e-09
3.84394e-08
2.36102e-06
2.73508e-05
1.74149e-05
1.06237e-05
1.73778e-06
2.06804e-07
2.2088e-08
6.29452e-09
5.33396e-09
3.23229e-08
1.96277e-06
2.4702e-05
1.47535e-05
1.17801e-05
2.38602e-06
3.11994e-07
5.57965e-08
8.27331e-09
5.88252e-09
2.77109e-08
1.67182e-06
2.30856e-05
1.22084e-05
1.21866e-05
3.76341e-06
5.77286e-07
8.24618e-08
2.08374e-08
1.15918e-08
2.29094e-08
1.3063e-06
2.05009e-05
9.80503e-06
1.28218e-05
5.4711e-06
9.72378e-07
1.97839e-07
3.26662e-08
9.98942e-09
2.65595e-08
1.07491e-06
1.87229e-05
7.55165e-06
1.36254e-05
7.36332e-06
1.80184e-06
3.56414e-07
9.01685e-08
3.7659e-08
3.05615e-08
7.86493e-07
1.51917e-05
5.59976e-06
1.44882e-05
9.57044e-06
2.89831e-06
7.66094e-07
1.92083e-07
6.45847e-08
4.13934e-08
7.73556e-07
1.24711e-05
0.310374
0.89078
0.887484
0.886848
0.886713
0.8867
0.886857
0.887478
0.891049
0.310778
0.0622592
0.0345584
0.0118178
0.0119555
0.0118821
0.0120984
0.0117797
0.0119262
0.0345162
0.0627057
0.0170674
0.000905025
0.000255508
0.000312952
0.000302748
0.000356737
0.000265879
0.000276793
0.000896387
0.0171952
0.00607645
0.000177622
6.79557e-06
8.12784e-05
0.00011183
7.60948e-05
5.28859e-06
1.10562e-05
0.000178358
0.00613864
0.00265517
7.04161e-05
4.83546e-07
2.37895e-05
8.26596e-07
1.80863e-06
6.84238e-10
9.16658e-07
7.11389e-05
0.00267896
0.00135787
3.20619e-05
1.24492e-07
1.02688e-07
1.02712e-10
1.39508e-11
9.85516e-11
2.14442e-07
3.22795e-05
0.00136541
0.000782086
1.61248e-05
5.68577e-08
4.99953e-10
4.74909e-13
2.77132e-13
3.31762e-11
4.81531e-08
1.5706e-05
0.000784605
0.000492966
9.2841e-06
3.3461e-08
1.11527e-10
1.2945e-13
6.28908e-14
1.75569e-11
2.63514e-08
8.60706e-06
0.000494599
0.000333032
6.13063e-06
4.04432e-08
9.99829e-11
1.07344e-13
6.59884e-13
3.17921e-11
3.01709e-08
5.66813e-06
0.000335014
0.000237456
7.79056e-06
4.8219e-08
2.90455e-10
1.86884e-13
2.42126e-12
2.76373e-11
3.12419e-08
4.44178e-06
0.000239946
0.000176712
6.63955e-06
7.52802e-08
4.65484e-10
1.52634e-12
2.33241e-12
1.29997e-10
3.60971e-08
5.58195e-06
0.00017958
0.000136268
9.8096e-06
1.29827e-07
5.50288e-10
2.5697e-12
2.42384e-12
1.32762e-10
4.05467e-08
4.9327e-06
0.000139439
0.000108127
8.29956e-06
1.53324e-07
1.22177e-09
2.08805e-12
2.28722e-12
1.8265e-10
5.83015e-08
5.98875e-06
0.000111425
8.78599e-05
8.8691e-06
1.84645e-07
1.55211e-09
1.82831e-11
1.31697e-12
2.03155e-10
6.4422e-08
6.3213e-06
9.1246e-05
7.27701e-05
7.41158e-06
2.05514e-07
2.12876e-09
2.49507e-11
6.61568e-13
1.99396e-10
6.64228e-08
4.90747e-06
7.62054e-05
6.12883e-05
8.04574e-06
2.40249e-07
3.45239e-09
3.58628e-11
7.45197e-13
2.51474e-10
7.8043e-08
5.265e-06
6.48714e-05
5.23183e-05
8.25604e-06
2.96625e-07
5.90666e-09
8.71861e-11
1.66855e-12
2.74062e-10
6.81028e-08
5.3789e-06
5.59716e-05
4.51531e-05
8.24377e-06
3.59646e-07
9.37872e-09
1.08116e-10
4.36807e-12
2.97109e-10
6.96915e-08
5.07241e-06
4.91425e-05
3.92884e-05
8.24432e-06
4.41511e-07
1.3988e-08
5.49064e-10
4.64183e-12
3.16412e-10
7.65421e-08
4.75855e-06
4.34696e-05
3.43854e-05
8.2107e-06
5.38791e-07
2.17401e-08
3.39647e-10
3.08909e-11
3.29061e-10
7.82327e-08
4.43515e-06
3.91364e-05
3.02018e-05
8.36519e-06
6.57619e-07
3.14865e-08
2.10741e-09
2.76786e-11
3.28386e-10
7.46178e-08
4.00615e-06
3.52002e-05
2.651e-05
8.60983e-06
8.22039e-07
4.9748e-08
2.32753e-09
1.90939e-10
3.02553e-10
6.73802e-08
3.57955e-06
3.22942e-05
2.32132e-05
9.06288e-06
1.01175e-06
7.42903e-08
7.89398e-09
3.8647e-10
3.7257e-10
5.93377e-08
3.12454e-06
2.93143e-05
2.01678e-05
9.54658e-06
1.3189e-06
1.18017e-07
9.132e-09
9.11721e-10
3.67505e-10
5.00494e-08
2.70235e-06
2.72631e-05
1.73412e-05
1.03565e-05
1.68064e-06
1.8558e-07
2.68392e-08
1.38661e-09
4.3859e-10
4.09672e-08
2.24194e-06
2.47068e-05
1.46628e-05
1.15043e-05
2.23171e-06
3.06402e-07
3.41521e-08
6.35669e-09
7.18779e-10
3.07579e-08
1.86587e-06
2.30523e-05
1.21082e-05
1.20395e-05
3.6696e-06
5.25177e-07
9.29968e-08
9.15364e-09
1.75211e-09
2.38729e-08
1.42559e-06
2.05016e-05
9.62409e-06
1.25989e-05
5.24857e-06
9.33142e-07
1.45121e-07
3.18175e-08
5.18055e-09
1.4158e-08
1.16475e-06
1.86059e-05
7.33608e-06
1.35621e-05
7.25077e-06
1.70331e-06
3.55398e-07
5.71472e-08
6.63757e-09
1.80577e-08
8.08421e-07
1.53954e-05
5.19063e-06
1.42911e-05
9.3924e-06
2.76017e-06
6.84293e-07
1.82224e-07
5.00941e-08
2.20221e-08
8.81308e-07
1.23372e-05
0.310375
0.890779
0.887489
0.88686
0.886713
0.886701
0.886844
0.887474
0.891049
0.310777
0.0622591
0.0345944
0.0119415
0.0118708
0.011924
0.0121045
0.0121729
0.0118552
0.0345139
0.062705
0.0170672
0.000904936
0.000294663
0.000297647
0.000315767
0.000358297
0.000372056
0.000253313
0.000897428
0.0171944
0.00607611
0.000177419
9.14645e-06
1.4969e-05
1.69499e-05
7.43112e-05
7.15091e-05
1.06668e-05
0.000178059
0.00613763
0.00265476
7.04115e-05
5.12088e-07
1.86172e-09
2.14237e-09
8.63847e-06
1.93282e-05
9.84631e-07
7.09336e-05
0.00267809
0.00135761
3.20573e-05
1.62314e-07
7.93518e-11
1.30009e-11
6.86958e-11
3.95137e-08
2.88674e-07
3.21561e-05
0.00136497
0.000781947
1.59314e-05
1.19941e-07
2.93307e-10
8.13797e-12
1.07076e-12
1.64883e-09
7.57913e-08
1.57252e-05
0.000784431
0.000492864
9.22139e-06
8.41874e-08
4.74593e-10
4.99124e-12
4.66892e-11
9.71612e-11
3.15443e-08
8.58184e-06
0.000494557
0.000332921
5.99486e-06
5.74831e-08
2.62657e-10
3.59452e-12
9.26852e-12
3.65372e-11
2.17478e-08
5.6781e-06
0.000335007
0.000237378
8.14416e-06
3.66918e-08
5.65459e-10
6.72543e-13
6.72185e-12
2.78953e-11
2.85432e-08
4.96813e-06
0.000239953
0.000176658
7.01321e-06
3.98442e-08
3.70766e-10
2.83877e-13
1.07378e-11
6.14623e-11
3.85863e-08
5.07501e-06
0.000179595
0.00013625
1.05593e-05
5.8417e-08
2.34035e-10
3.95329e-13
1.0367e-11
9.63252e-11
5.36851e-08
6.45145e-06
0.00013947
0.000108149
8.71752e-06
7.76684e-08
6.12836e-10
2.55817e-13
1.30382e-11
1.27976e-10
6.23826e-08
5.71657e-06
0.000111442
8.7852e-05
9.06545e-06
1.78856e-07
4.96178e-10
1.08031e-11
3.90626e-12
1.67565e-10
6.98685e-08
6.62422e-06
9.1258e-05
7.27951e-05
7.63726e-06
1.96253e-07
3.21419e-09
2.96895e-11
8.0212e-12
2.4489e-10
8.90871e-08
5.1759e-06
7.62163e-05
6.1292e-05
8.11017e-06
2.35458e-07
3.90916e-09
4.23741e-11
3.28943e-12
2.75286e-10
7.50049e-08
5.68944e-06
6.48957e-05
5.23118e-05
8.1713e-06
2.67686e-07
4.38315e-09
8.027e-11
2.84208e-12
3.30796e-10
8.88481e-08
5.82025e-06
5.60275e-05
4.51426e-05
8.26306e-06
3.3641e-07
7.33603e-09
6.1161e-11
4.87417e-12
3.64089e-10
9.45497e-08
5.60803e-06
4.92314e-05
3.92815e-05
7.98643e-06
4.1572e-07
1.18825e-08
3.89235e-10
3.00902e-12
3.84889e-10
9.32753e-08
5.16914e-06
4.35576e-05
3.43844e-05
8.05866e-06
5.11836e-07
1.9574e-08
5.93304e-10
3.06375e-11
3.92968e-10
8.9827e-08
4.71554e-06
3.92265e-05
3.01992e-05
8.27447e-06
6.23857e-07
2.83914e-08
1.26567e-09
8.23421e-12
3.87945e-10
8.2486e-08
4.1688e-06
3.52493e-05
2.65083e-05
8.58321e-06
8.03441e-07
4.71285e-08
1.67029e-09
1.31777e-10
3.87536e-10
7.3579e-08
3.69224e-06
3.23696e-05
2.32137e-05
8.98665e-06
9.90891e-07
7.12211e-08
7.09189e-09
2.75767e-10
3.73898e-10
6.32711e-08
3.18133e-06
2.93293e-05
2.01724e-05
9.52359e-06
1.31275e-06
1.15678e-07
8.34614e-09
7.77732e-10
4.47762e-10
5.18897e-08
2.74087e-06
2.73207e-05
1.73484e-05
1.03746e-05
1.6856e-06
1.87172e-07
2.60258e-08
1.23768e-09
4.446e-10
4.19432e-08
2.26934e-06
2.47242e-05
1.46683e-05
1.15261e-05
2.24986e-06
3.07016e-07
3.33989e-08
6.10067e-09
7.8095e-10
3.1232e-08
1.88928e-06
2.31286e-05
1.21093e-05
1.20566e-05
3.69754e-06
5.35855e-07
9.38833e-08
9.08036e-09
1.58317e-09
2.40313e-08
1.45856e-06
2.05639e-05
9.61785e-06
1.26055e-05
5.28261e-06
9.43442e-07
1.46581e-07
3.19556e-08
5.0073e-09
1.56371e-08
1.18914e-06
1.87615e-05
7.3231e-06
1.35585e-05
7.27429e-06
1.72145e-06
3.63783e-07
5.84272e-08
8.01489e-09
1.56256e-08
8.33205e-07
1.53432e-05
5.16894e-06
1.42823e-05
9.38917e-06
2.79342e-06
6.86942e-07
1.82041e-07
5.4654e-08
2.56029e-08
8.81585e-07
1.27327e-05
0.31045
0.890899
0.887629
0.88699
0.886843
0.886846
0.887006
0.887611
0.891173
0.310849
0.0623943
0.0346582
0.0117059
0.0120197
0.0121191
0.0120924
0.0117734
0.0118953
0.0345705
0.0628399
0.0171535
0.000901163
0.000218495
0.000327371
0.000358045
0.000350382
0.000262126
0.000260568
0.000896541
0.0172812
0.00612388
0.000179895
2.92384e-06
8.40647e-05
7.45512e-05
7.28512e-05
1.40124e-05
7.93758e-06
0.000178017
0.0061853
0.00268047
7.09694e-05
3.40999e-07
1.28242e-06
1.38768e-05
2.8143e-05
9.5317e-10
5.61788e-07
7.07253e-05
0.00270332
0.00137276
3.20304e-05
1.26875e-07
2.90624e-08
2.15551e-06
1.54842e-05
1.29265e-10
1.4281e-07
3.17154e-05
0.00137979
0.000791558
1.61875e-05
7.38697e-08
6.97589e-10
1.2736e-07
1.68685e-06
1.59599e-10
4.84357e-08
1.576e-05
0.000793878
0.000499384
9.57002e-06
4.18993e-08
1.7349e-10
2.06657e-08
1.82801e-07
1.94157e-10
3.35891e-08
8.92852e-06
0.000500905
0.000337524
6.05306e-06
2.85962e-08
2.94848e-10
5.28883e-09
6.50376e-08
2.6242e-10
4.26378e-08
5.85136e-06
0.000339464
0.00024073
8.88407e-06
2.22022e-08
3.83781e-10
1.87488e-09
2.91537e-08
4.11334e-10
6.86789e-08
6.47013e-06
0.00024315
0.000179166
7.29718e-06
7.04761e-08
8.51072e-10
7.09442e-10
1.96721e-08
2.79691e-10
8.93267e-08
6.01904e-06
0.000181974
0.000138164
1.18662e-05
8.41705e-08
1.95358e-09
3.32673e-10
1.26559e-08
4.09235e-10
7.51866e-08
8.8267e-06
0.000141229
0.000109601
9.80046e-06
2.66748e-07
3.6022e-09
2.88273e-10
8.675e-09
8.00276e-10
9.95878e-08
7.5808e-06
0.000112944
8.90076e-05
1.01787e-05
2.10264e-07
3.24611e-09
3.98788e-10
6.23926e-09
1.0564e-09
1.24361e-07
8.25954e-06
9.25644e-05
7.36513e-05
8.49631e-06
2.58974e-07
4.42732e-09
8.52079e-10
4.59311e-09
1.54247e-09
1.28343e-07
6.0514e-06
7.73833e-05
6.1978e-05
9.06369e-06
3.27831e-07
7.07745e-09
1.05545e-09
2.4842e-09
1.88639e-09
1.3309e-07
6.77731e-06
6.59636e-05
5.2864e-05
9.21176e-06
3.69001e-07
9.81769e-09
1.41479e-09
9.9589e-10
2.12774e-09
1.31671e-07
6.67857e-06
5.69975e-05
4.55935e-05
9.10087e-06
4.5639e-07
1.45312e-08
1.48741e-09
7.9534e-10
2.53688e-09
1.23789e-07
6.19898e-06
5.00744e-05
3.96597e-05
9.09225e-06
5.51453e-07
2.02235e-08
2.32139e-09
5.26333e-10
2.63095e-09
1.12288e-07
5.56554e-06
4.42993e-05
3.46994e-05
8.98932e-06
6.69224e-07
3.10078e-08
2.48648e-09
1.06227e-09
2.97142e-09
9.94971e-08
4.93694e-06
3.98433e-05
3.04514e-05
9.14267e-06
7.81152e-07
4.21077e-08
4.46396e-09
1.11641e-09
3.18758e-09
8.66484e-08
4.29738e-06
3.57855e-05
2.67355e-05
9.54541e-06
9.82195e-07
6.56781e-08
4.46779e-09
2.43831e-09
3.2677e-09
7.48633e-08
3.75397e-06
3.28118e-05
2.33893e-05
9.78906e-06
1.16271e-06
9.25329e-08
1.21323e-08
3.12359e-09
3.66764e-09
6.32267e-08
3.19517e-06
2.96897e-05
2.03465e-05
1.03641e-05
1.52229e-06
1.46265e-07
1.40703e-08
3.54878e-09
3.74468e-09
5.34638e-08
2.75761e-06
2.76422e-05
1.74477e-05
1.09546e-05
1.83412e-06
2.19094e-07
3.75976e-08
4.74847e-09
5.67319e-09
4.34281e-08
2.26474e-06
2.49924e-05
1.47392e-05
1.18594e-05
2.45992e-06
3.49126e-07
4.5638e-08
1.17022e-08
5.91604e-09
3.6082e-08
1.90545e-06
2.3357e-05
1.21479e-05
1.21292e-05
3.67509e-06
5.59442e-07
1.11885e-07
1.67062e-08
1.2475e-08
2.77934e-08
1.46042e-06
2.08197e-05
9.70738e-06
1.26637e-05
5.32687e-06
9.6406e-07
1.63052e-07
4.69681e-08
1.41956e-08
3.14003e-08
1.21517e-06
1.88959e-05
7.43324e-06
1.34278e-05
7.15803e-06
1.73668e-06
3.85764e-07
7.44201e-08
3.87638e-08
3.11414e-08
8.6342e-07
1.56828e-05
5.46438e-06
1.4303e-05
9.35221e-06
2.76158e-06
7.11564e-07
2.13695e-07
6.21495e-08
6.06401e-08
9.50367e-07
1.24348e-05
0.310741
0.891486
0.888211
0.887624
0.887484
0.887482
0.887625
0.888202
0.89175
0.311133
0.0628381
0.0346038
0.0120141
0.0118685
0.0119124
0.0119597
0.0120029
0.0122523
0.0345961
0.063284
0.0173907
0.000910429
0.000275634
0.000262716
0.000279022
0.000289719
0.000301343
0.000333729
0.000904163
0.0175219
0.0062372
0.000184334
2.06245e-05
1.03429e-05
9.58014e-06
1.33213e-05
1.5877e-05
8.48718e-05
0.000185296
0.00630228
0.00272982
7.28654e-05
2.70021e-06
1.61795e-06
1.0701e-06
2.6728e-06
1.51262e-06
1.31608e-05
7.36669e-05
0.00275362
0.00139563
3.25661e-05
8.13992e-07
3.31505e-07
3.32199e-07
6.0465e-07
4.50807e-07
4.24797e-06
3.26846e-05
0.00140244
0.000803668
1.58111e-05
2.38921e-07
7.19527e-08
1.14193e-07
1.12441e-07
2.15942e-07
1.10387e-06
1.56837e-05
0.000805413
0.000506518
9.1746e-06
9.5928e-08
3.6384e-08
5.19385e-08
4.08783e-08
1.0851e-07
2.15513e-07
8.37993e-06
0.00050765
0.000342167
5.64533e-06
5.27206e-08
6.09762e-08
3.49322e-08
3.83215e-08
5.62661e-08
6.62822e-08
5.5218e-06
0.000343691
0.000244043
8.55132e-06
8.23499e-08
5.69511e-08
6.10546e-08
3.57277e-08
4.17331e-08
3.91974e-08
5.19957e-06
0.00024586
0.000181659
6.97664e-06
5.63496e-08
5.01537e-08
7.79143e-08
5.86332e-08
1.93593e-08
5.91101e-08
5.21657e-06
0.000183601
0.000140072
1.13416e-05
3.07943e-07
1.06986e-07
1.1434e-07
9.73842e-08
7.87057e-08
1.4815e-07
8.36331e-06
0.000142116
0.000111109
9.48216e-06
2.79478e-07
1.62402e-07
1.42961e-07
1.18007e-07
7.68396e-08
1.9563e-07
7.52927e-06
0.000113263
9.02311e-05
9.81222e-06
2.85488e-07
9.7563e-08
1.60344e-07
1.61109e-07
1.22803e-07
3.36336e-07
8.57097e-06
9.25271e-05
7.46744e-05
7.97198e-06
3.39855e-07
1.72693e-07
1.9646e-07
1.21798e-07
1.95788e-07
2.38352e-07
6.01971e-06
7.71399e-05
6.2845e-05
8.59035e-06
3.72174e-07
2.09554e-07
1.65798e-07
1.65716e-07
1.72006e-07
3.20867e-07
6.86957e-06
6.56034e-05
5.36136e-05
8.79112e-06
4.72461e-07
2.44784e-07
1.77393e-07
1.53446e-07
1.87309e-07
3.52804e-07
6.89163e-06
5.65981e-05
4.6232e-05
8.74063e-06
5.77615e-07
2.36651e-07
1.84392e-07
1.78144e-07
2.19762e-07
3.54377e-07
6.46887e-06
4.96426e-05
4.02103e-05
8.82196e-06
6.67378e-07
2.51761e-07
2.06656e-07
1.76461e-07
2.32278e-07
3.4521e-07
5.8244e-06
4.38601e-05
3.51557e-05
8.75582e-06
7.82789e-07
2.68984e-07
2.09889e-07
1.82694e-07
2.32658e-07
3.08474e-07
5.16297e-06
3.93685e-05
3.08497e-05
8.95739e-06
9.00042e-07
2.89622e-07
2.19514e-07
1.88153e-07
2.31006e-07
3.20707e-07
4.49845e-06
3.53279e-05
2.70432e-05
9.32352e-06
1.0658e-06
3.07574e-07
2.29818e-07
1.94506e-07
2.32717e-07
3.10701e-07
3.90181e-06
3.23013e-05
2.36334e-05
9.82063e-06
1.28452e-06
3.51109e-07
2.45793e-07
2.04164e-07
2.37806e-07
2.79849e-07
3.37531e-06
2.92591e-05
2.04446e-05
1.03295e-05
1.63037e-06
3.93867e-07
2.47948e-07
2.1035e-07
2.43858e-07
3.01468e-07
2.88396e-06
2.71507e-05
1.74707e-05
1.12522e-05
2.02379e-06
4.85407e-07
3.04131e-07
2.33541e-07
2.55407e-07
3.04445e-07
2.50112e-06
2.46813e-05
1.45946e-05
1.22382e-05
2.78148e-06
6.60422e-07
3.27245e-07
2.65981e-07
2.70089e-07
3.24966e-07
2.0771e-06
2.30249e-05
1.18385e-05
1.29308e-05
4.30736e-06
9.6587e-07
4.64862e-07
3.25628e-07
3.25931e-07
3.31507e-07
1.82934e-06
2.06418e-05
9.11664e-06
1.38999e-05
6.47248e-06
1.60974e-06
6.10684e-07
4.24079e-07
4.01796e-07
4.68148e-07
1.43877e-06
1.90285e-05
6.73142e-06
1.56402e-05
9.1664e-06
2.82787e-06
1.10763e-06
6.29926e-07
5.83991e-07
5.57576e-07
1.71373e-06
1.56741e-05
5.30287e-06
1.7795e-05
1.35862e-05
5.18422e-06
2.06167e-06
1.09706e-06
8.42806e-07
9.38688e-07
2.14323e-06
1.3957e-05
0.311849
0.888907
0.891753
0.891174
0.891044
0.891047
0.891172
0.89175
0.889138
0.31222
0.063736
0.0493514
0.0345606
0.0345548
0.0345766
0.0345314
0.034582
0.0345836
0.0492227
0.0641631
0.0177559
0.00215538
0.000903006
0.000898452
0.000895862
0.000898817
0.000897719
0.00090539
0.00212411
0.0179055
0.00641604
0.000319713
0.000191129
0.00017947
0.000180137
0.000178185
0.000178545
0.000185242
0.000317042
0.00649462
0.00280294
0.000125014
8.06183e-05
7.19981e-05
7.19272e-05
7.16456e-05
7.0923e-05
7.33001e-05
0.000125237
0.00283454
0.00141703
6.18478e-05
3.67223e-05
3.25949e-05
3.24338e-05
3.2418e-05
3.19719e-05
3.27101e-05
6.12226e-05
0.00142497
0.000803026
3.77531e-05
1.75421e-05
1.58628e-05
1.60066e-05
1.58396e-05
1.59235e-05
1.5708e-05
3.73731e-05
0.000803232
0.000498944
2.36408e-05
9.06548e-06
8.90562e-06
8.93877e-06
8.92049e-06
9.21887e-06
8.67883e-06
2.2366e-05
0.000496868
0.000333177
3.07741e-05
5.57259e-06
6.08932e-06
5.95217e-06
5.85519e-06
5.92617e-06
5.43099e-06
1.46313e-05
0.00033225
0.000235728
2.92894e-05
3.61798e-06
6.3387e-06
6.44558e-06
6.457e-06
7.6606e-06
6.2342e-06
8.41561e-06
0.000235797