/*--------------------------------*- C++ -*----------------------------------*\
| =========                 |                                                 |
| \\      /  F ield         | OpenFOAM: The Open Source CFD Toolbox           |
|  \\    /   O peration     | Version:  4.1                                   |
|   \\  /    A nd           | Web:      www.OpenFOAM.org                      |
|    \\/     M anipulation  |                                                 |
\*---------------------------------------------------------------------------*/
FoamFile
{
    version     2.0;
    format      ascii;
    class       volScalarField;
    location    "1700";
    object      k;
}
// * * * * * * * * * * * * * * * * * * * * * * * * * * * * * * * * * * * * * //

dimensions      [0 2 -2 0 0 0 0];

internalField   nonuniform List<scalar> 
12000
(
0.116509
0.11367
0.113361
0.113286
0.113268
0.113268
0.113286
0.113362
0.113712
0.116558
0.040482
0.039816
0.039501
0.0393211
0.0392654
0.0392657
0.0393213
0.0394983
0.039803
0.0404554
0.0169434
0.0169678
0.0167832
0.0166406
0.0165868
0.0165873
0.0166419
0.0167861
0.0169643
0.0169397
0.0083993
0.00855732
0.00846031
0.00837242
0.00833289
0.00833364
0.00837509
0.00846837
0.00855349
0.00839768
0.00478106
0.00492697
0.00488338
0.00482859
0.0047998
0.00480066
0.00483178
0.00489335
0.00492578
0.00478237
0.0030228
0.00314768
0.00312824
0.00309185
0.00306998
0.00307062
0.00309395
0.00313482
0.00314601
0.0030269
0.00206722
0.0021683
0.00216635
0.00214114
0.00212407
0.00212455
0.00214238
0.00216943
0.00216952
0.00207401
0.001502
0.00158537
0.00159362
0.00157609
0.00156259
0.00156297
0.00157709
0.00159548
0.00158383
0.00150965
0.0011441
0.00121042
0.00122668
0.00121449
0.00120409
0.0012047
0.00121595
0.00122803
0.00121143
0.00115223
0.000904923
0.000959836
0.0009795
0.000969949
0.000962223
0.000962306
0.000971414
0.000981567
0.00096214
0.000913487
0.000737339
0.000783769
0.000804998
0.000798353
0.000791857
0.000792141
0.000800068
0.00080782
0.00078651
0.000746726
0.000615571
0.000657197
0.000677071
0.000671681
0.00066642
0.00066716
0.000673233
0.000679713
0.000660646
0.000625857
0.000523824
0.000560623
0.000580555
0.000576682
0.000572442
0.000573194
0.000578586
0.000584116
0.000565891
0.000535569
0.000452964
0.000488278
0.000506594
0.000503649
0.000500219
0.000501099
0.000505985
0.000510718
0.000492547
0.000466242
0.000396779
0.000431137
0.000448313
0.000446115
0.000443442
0.000444228
0.000448561
0.000452844
0.000435342
0.000412031
0.000351192
0.000384943
0.000401233
0.000399658
0.000397764
0.000398725
0.000402717
0.000406646
0.000390154
0.000368754
0.000313415
0.000346748
0.000362785
0.000361797
0.000360443
0.000361494
0.000365168
0.000368997
0.000353723
0.000333984
0.000281434
0.000314827
0.000330727
0.000330289
0.000329598
0.000330927
0.00033444
0.00033822
0.000324055
0.000305445
0.000253727
0.000287551
0.000303677
0.000303936
0.00030377
0.000305239
0.000308655
0.000312661
0.000299836
0.000282341
0.000229075
0.000263908
0.000280363
0.000281409
0.000281961
0.000283955
0.000287483
0.000291517
0.0002796
0.000262972
0.00020643
0.000242546
0.000260094
0.000262148
0.000263216
0.000265347
0.00026901
0.000273721
0.00026344
0.000247634
0.000184797
0.00022288
0.000241791
0.000245149
0.000246964
0.000250053
0.000254009
0.000258781
0.000249833
0.000234518
0.000163222
0.000203549
0.000225314
0.000230153
0.000232533
0.000235752
0.00024022
0.000246232
0.000239495
0.000224927
0.000140404
0.0001839
0.000209011
0.000216281
0.000219845
0.000224418
0.000229301
0.000235575
0.000230456
0.000216616
0.000114967
0.000161492
0.00019301
0.00020311
0.000207626
0.00021241
0.000218523
0.000226904
0.000224423
0.000212011
8.36071e-05
0.000136093
0.000174565
0.00018982
0.0001968
0.000203484
0.000209839
0.00021913
0.000218649
0.000208404
4.64963e-05
0.000102675
0.000153495
0.000174096
0.00018376
0.000191514
0.000200556
0.000213285
0.000216043
0.00020814
3.14273e-05
7.04622e-05
0.000122417
0.00015562
0.000171638
0.000182275
0.000190568
0.000206081
0.000213331
0.000211771
4.33065e-05
6.41312e-05
8.43949e-05
0.000112595
0.00014358
0.000166825
0.000180532
0.000198458
0.000213305
0.000212726
7.11355e-05
9.16059e-05
9.99358e-05
0.000100957
0.000107365
0.000125507
0.000148928
0.000183428
0.000207397
0.000227715
0.113669
0.0185795
0.0163862
0.0163759
0.0163775
0.0163776
0.016376
0.016386
0.0185696
0.113627
0.0398145
0.00135347
0.000833461
0.000825202
0.000824987
0.000825002
0.000825161
0.000833298
0.0013459
0.0396354
0.0169657
0.000894057
0.000439729
0.000431479
0.000431314
0.000432218
0.000430688
0.000439363
0.000891615
0.0168981
0.00855487
0.000986993
0.000281539
0.000292799
0.000293481
0.00029632
0.000295623
0.000292026
0.000959445
0.00853086
0.00492433
0.000679282
0.000169973
0.000204616
0.000204202
0.000209226
0.000207513
0.000200404
0.000673359
0.00493582
0.00314497
0.000647619
0.000135384
0.000166767
0.000166725
0.000169774
0.000168283
0.000161621
0.000608208
0.0031598
0.00216551
0.000554433
8.98249e-05
0.000102034
0.000102421
0.000103501
0.000103117
0.000100445
0.000521131
0.00218156
0.00158247
0.000489719
0.000101178
0.000122652
0.000124298
0.000124935
0.000126818
0.000119143
0.000352982
0.00159301
0.00120734
0.000332784
6.87066e-05
8.9483e-05
0.000115447
0.000115834
0.000113624
7.63467e-05
0.000216915
0.00121733
0.000956485
0.000262709
6.47821e-05
5.54961e-05
0.000102355
7.62668e-05
7.52255e-05
8.58162e-05
0.000161908
0.000965049
0.000780098
0.000204435
5.81688e-05
6.80758e-05
8.76729e-05
7.32137e-05
8.06344e-05
7.34253e-05
8.85642e-05
0.000789009
0.00065314
0.000217418
5.12187e-05
5.86087e-05
6.77056e-05
5.72636e-05
6.71824e-05
6.07681e-05
0.000129081
0.000662317
0.000556092
0.000188901
5.32005e-05
5.80677e-05
5.95037e-05
5.27205e-05
6.46793e-05
5.90599e-05
0.000110556
0.000568119
0.000483203
0.000182711
5.77735e-05
5.89145e-05
6.0616e-05
5.22964e-05
6.49813e-05
5.98017e-05
8.4888e-05
0.000495303
0.000425443
0.000175494
6.10299e-05
6.08322e-05
5.9677e-05
5.45864e-05
6.55738e-05
5.96962e-05
8.23394e-05
0.000438598
0.000378508
0.000169398
6.30138e-05
6.0753e-05
5.857e-05
5.47097e-05
6.50997e-05
5.91971e-05
8.7245e-05
0.000393248
0.000339502
0.000165014
6.37376e-05
6.0111e-05
5.6485e-05
5.62902e-05
6.76103e-05
6.06112e-05
8.98057e-05
0.00035642
0.00030662
0.000160607
6.44118e-05
6.0013e-05
5.7637e-05
5.47887e-05
6.46054e-05
6.40968e-05
9.0425e-05
0.00032612
0.000278392
0.000158869
6.64588e-05
6.16683e-05
5.58541e-05
5.57679e-05
6.62884e-05
6.09455e-05
9.5769e-05
0.00030086
0.000253645
0.000158127
6.9416e-05
6.01915e-05
5.76509e-05
5.5645e-05
6.53992e-05
6.25225e-05
9.16801e-05
0.000279731
0.000231417
0.000158989
7.26909e-05
6.05413e-05
5.69012e-05
5.49712e-05
6.45639e-05
6.33135e-05
9.61033e-05
0.000261899
0.000210811
0.000163329
7.67495e-05
6.20049e-05
5.73322e-05
5.50811e-05
6.19134e-05
6.38277e-05
9.50225e-05
0.000247095
0.000191378
0.000169385
8.38884e-05
6.41153e-05
5.87876e-05
5.60644e-05
6.13549e-05
6.33378e-05
9.43749e-05
0.000234068
0.000171795
0.000171765
9.38591e-05
6.64852e-05
6.09741e-05
5.70193e-05
6.14669e-05
6.38674e-05
8.91149e-05
0.000223117
0.000151619
0.000176621
0.000106769
7.10411e-05
6.28686e-05
5.95502e-05
6.17646e-05
6.48773e-05
8.80713e-05
0.0002137
0.000129053
0.000183504
0.000128737
7.99491e-05
6.72893e-05
6.13472e-05
6.35682e-05
6.69066e-05
8.77108e-05
0.000206327
0.000104388
0.000196913
0.000149301
9.30019e-05
7.40384e-05
6.61927e-05
6.67219e-05
6.97953e-05
8.91614e-05
0.000198143
7.57906e-05
0.000212532
0.000181579
0.000118663
9.06395e-05
7.50652e-05
7.35159e-05
7.66758e-05
9.09995e-05
0.000194072
6.10095e-05
0.000242736
0.000221555
0.00015188
0.000111824
9.54672e-05
8.80467e-05
8.90759e-05
0.000113413
0.000180913
6.41786e-05
0.000266117
0.00028649
0.000229407
0.000152993
0.000121264
0.000110184
0.000112157
0.000155921
0.000198474
0.113361
0.0163867
0.0143435
0.0143388
0.014339
0.0143388
0.0143387
0.0143436
0.016381
0.113257
0.0394994
0.000833652
0.000316342
0.000313261
0.000312419
0.000311637
0.000312618
0.000317191
0.000832997
0.0392917
0.0167809
0.000440042
8.73545e-07
1.16875e-06
1.23213e-06
9.18884e-07
9.09884e-07
9.28189e-07
0.000439882
0.016706
0.0084575
0.000279736
1.63366e-08
8.14333e-09
8.13933e-09
3.83223e-09
7.95669e-09
1.33581e-08
0.00027514
0.00842732
0.00488046
0.000168463
1.71011e-08
5.83502e-08
2.01292e-07
3.06526e-08
1.4035e-07
6.69096e-08
0.000163518
0.00487823
0.00312525
0.000134185
3.45586e-08
3.35393e-07
4.49726e-07
6.50946e-08
6.31555e-07
1.98047e-07
0.000118321
0.00313311
0.00216327
8.8942e-05
1.35641e-07
6.01725e-07
5.45737e-07
1.47305e-07
9.43509e-07
4.29745e-07
9.97157e-05
0.00217395
0.00159042
0.000105064
2.80933e-07
5.83719e-07
6.55828e-07
2.12141e-07
4.51435e-07
9.16836e-07
6.06392e-05
0.00159939
0.00122355
7.68029e-05
4.20193e-07
7.99662e-07
4.33164e-07
4.29394e-07
1.44871e-06
8.22096e-07
8.23008e-05
0.00123134
0.000975647
5.33812e-05
8.11866e-07
5.96372e-07
9.21084e-07
4.60976e-07
9.87977e-07
8.42192e-07
8.00531e-05
0.000983203
0.000801226
5.70557e-05
8.12356e-07
6.65444e-07
6.81846e-07
5.26087e-07
1.11333e-06
9.17112e-07
5.97731e-05
0.000808047
0.000673107
5.21036e-05
7.84816e-07
6.69579e-07
6.17678e-07
3.88339e-07
9.38901e-07
9.19075e-07
4.70184e-05
0.000680681
0.000576161
5.94678e-05
1.06419e-06
6.82011e-07
5.66276e-07
4.82469e-07
9.69756e-07
1.20652e-06
4.59058e-05
0.000583196
0.000501836
6.1931e-05
1.39821e-06
8.40941e-07
7.04665e-07
4.76315e-07
1.00854e-06
1.349e-06
4.99282e-05
0.000509517
0.000442849
6.23902e-05
2.05404e-06
9.48205e-07
8.2351e-07
5.96191e-07
1.17732e-06
1.74122e-06
4.81717e-05
0.000451364
0.000394911
6.61343e-05
2.89717e-06
1.22489e-06
1.01407e-06
8.50001e-07
1.54956e-06
2.0782e-06
4.89831e-05
0.000405053
0.000355262
7.22686e-05
4.04922e-06
1.47933e-06
1.29762e-06
1.09676e-06
1.8846e-06
2.46613e-06
5.34122e-05
0.000366935
0.000321852
7.86097e-05
4.90478e-06
1.76766e-06
1.47972e-06
1.42086e-06
2.2399e-06
2.70114e-06
4.9521e-05
0.000335941
0.000293242
8.47271e-05
6.37625e-06
2.0646e-06
1.70061e-06
1.62891e-06
2.53621e-06
3.06183e-06
5.21163e-05
0.000309452
0.000268146
9.09515e-05
7.64658e-06
2.35603e-06
1.9466e-06
1.84864e-06
2.77746e-06
3.30155e-06
5.17491e-05
0.000288028
0.000245811
9.68462e-05
9.9862e-06
2.7015e-06
2.12133e-06
2.16769e-06
2.98364e-06
3.75928e-06
4.94832e-05
0.000268453
0.000225153
0.000102486
1.23856e-05
3.13831e-06
2.48931e-06
2.30995e-06
3.18474e-06
3.93058e-06
4.59845e-05
0.000253018
0.000205926
0.000110977
1.64896e-05
3.82626e-06
2.86084e-06
2.83052e-06
3.38221e-06
3.87768e-06
4.24088e-05
0.000237386
0.000187095
0.000119679
2.11797e-05
4.86407e-06
3.40844e-06
3.11062e-06
3.65219e-06
3.98672e-06
3.78363e-05
0.000225831
0.000168923
0.000135013
3.00645e-05
6.5045e-06
4.20277e-06
3.14053e-06
3.84059e-06
4.17936e-06
3.42527e-05
0.000211846
0.000150222
0.000142784
4.271e-05
9.72823e-06
4.85813e-06
3.52367e-06
4.2967e-06
4.57925e-06
2.9474e-05
0.000202894
0.000131265
0.000153876
6.79385e-05
1.54021e-05
6.47799e-06
4.22397e-06
4.67735e-06
4.88726e-06
2.6207e-05
0.000187707
0.000110853
0.000165404
9.28363e-05
2.67594e-05
9.81738e-06
5.90588e-06
5.28989e-06
6.025e-06
2.14285e-05
0.000178952
9.09766e-05
0.000184473
0.000130048
4.54088e-05
1.80383e-05
9.02995e-06
7.462e-06
7.20463e-06
2.05895e-05
0.000155754
7.76693e-05
0.000205882
0.00017159
8.10081e-05
3.43437e-05
1.8241e-05
1.17636e-05
1.11913e-05
2.27294e-05
0.000144653
0.113286
0.0163764
0.0143386
0.0143338
0.0143339
0.0143338
0.0143338
0.0143387
0.0163709
0.113177
0.0393196
0.000825643
0.000312493
0.000309026
0.000307266
0.000307205
0.000308493
0.000312534
0.000824811
0.0391111
0.0166383
0.000432375
9.10252e-07
8.81686e-07
6.85981e-07
5.62327e-07
8.58472e-07
9.93342e-07
0.000432112
0.0165638
0.00836957
0.000294692
2.34876e-09
5.04111e-10
4.87448e-10
8.5661e-10
1.20213e-09
2.21631e-09
0.000289036
0.00833883
0.00482551
0.000205232
1.61584e-08
7.35391e-13
7.14275e-13
2.66382e-12
5.42863e-12
1.40166e-08
0.0001944
0.00482192
0.00308862
0.000168141
4.18061e-08
7.98121e-11
1.28699e-12
5.31933e-13
1.65531e-13
5.87265e-08
0.000159487
0.00309559
0.00213773
0.000104773
9.81052e-08
1.23443e-09
6.14393e-11
2.83352e-12
3.2992e-11
1.59737e-07
0.000100427
0.00214804
0.00157261
0.000126079
1.73718e-07
1.66674e-09
5.32787e-10
1.43349e-11
1.2242e-09
3.27967e-07
0.000116378
0.00158151
0.00121069
9.2919e-05
3.94366e-07
4.85345e-09
9.27158e-10
6.28082e-11
4.34533e-09
3.05136e-07
8.31673e-05
0.00121938
0.000965759
5.85265e-05
2.60878e-07
2.11543e-09
9.72316e-10
5.73467e-11
3.47943e-09
2.05837e-07
5.17896e-05
0.000975047
0.000793758
7.14744e-05
8.10525e-07
1.04875e-08
2.04716e-09
1.0664e-10
6.28864e-09
3.49443e-07
6.27192e-05
0.000803229
0.00066653
6.14369e-05
7.30094e-07
1.01017e-08
1.96317e-09
1.79488e-10
5.48297e-09
3.75966e-07
5.06194e-05
0.000677739
0.00057088
6.25377e-05
9.148e-07
1.00105e-08
1.93648e-09
3.65349e-10
5.66888e-09
4.69917e-07
4.67564e-05
0.000583072
0.000497114
6.38114e-05
1.09534e-06
1.3089e-08
2.44242e-09
1.12491e-09
6.73163e-09
5.33604e-07
4.60997e-05
0.000510628
0.00043859
6.57376e-05
1.54988e-06
2.05794e-08
2.85647e-09
1.49981e-09
7.69426e-09
5.77404e-07
4.73597e-05
0.000453161
0.000391007
6.83579e-05
2.00002e-06
3.42222e-08
4.73632e-09
2.53552e-09
1.05942e-08
6.02968e-07
4.72511e-05
0.00040735
0.000351663
7.29608e-05
2.88457e-06
5.94014e-08
6.96245e-09
4.61317e-09
1.34396e-08
6.54821e-07
4.66479e-05
0.00036932
0.000318529
7.65438e-05
3.68163e-06
1.03257e-07
1.06172e-08
7.58854e-09
1.83804e-08
7.23102e-07
4.6423e-05
0.000338545
0.000290123
8.14141e-05
4.89931e-06
1.58755e-07
1.65741e-08
1.07504e-08
2.44573e-08
7.79643e-07
4.50724e-05
0.000311816
0.000265263
8.55937e-05
6.20681e-06
2.69224e-07
2.25802e-08
1.54415e-08
2.89156e-08
7.87965e-07
4.25361e-05
0.000290409
0.000243097
9.07535e-05
8.01315e-06
4.06427e-07
4.22814e-08
1.96005e-08
3.85332e-08
7.66147e-07
3.91851e-05
0.000270249
0.000222755
9.56151e-05
1.0326e-05
6.75867e-07
5.79719e-08
3.26695e-08
4.48346e-08
7.16123e-07
3.5944e-05
0.000254862
0.000203759
0.000102816
1.30966e-05
1.02986e-06
1.30374e-07
3.75878e-08
5.20485e-08
6.443e-07
3.20809e-05
0.000238283
0.00018542
0.000109353
1.73887e-05
1.72189e-06
1.7618e-07
7.19926e-08
6.85556e-08
5.73706e-07
2.89093e-05
0.000226863
0.000167592
0.00012289
2.26462e-05
2.70802e-06
4.10059e-07
8.1311e-08
7.43381e-08
5.04647e-07
2.51361e-05
0.000211796
0.000149976
0.000133627
3.45678e-05
4.57301e-06
5.88468e-07
1.60262e-07
1.27963e-07
4.32325e-07
2.19487e-05
0.000202532
0.000132113
0.00014042
5.09326e-05
8.44191e-06
1.45475e-06
2.28911e-07
1.34291e-07
3.92522e-07
1.80372e-05
0.000186601
0.000114047
0.000150061
7.49049e-05
1.45689e-05
2.49409e-06
5.90836e-07
2.71817e-07
3.88892e-07
1.44938e-05
0.00017637
9.57259e-05
0.000160409
9.70252e-05
2.73756e-05
5.94139e-06
1.13954e-06
3.68777e-07
4.19428e-07
1.08765e-05
0.000152865
7.82544e-05
0.000172762
0.000129045
4.21836e-05
1.16059e-05
3.30654e-06
1.06824e-06
6.66303e-07
8.44354e-06
0.000134301
0.113267
0.0163781
0.0143389
0.0143339
0.0143341
0.014334
0.014334
0.0143388
0.0163725
0.113158
0.039264
0.000825519
0.00031225
0.000307788
0.000306909
0.000306738
0.000308036
0.000312243
0.000824571
0.0390556
0.0165844
0.00043314
1.01588e-06
6.88164e-07
7.09293e-07
5.75495e-07
8.44427e-07
9.14844e-07
0.000432493
0.0165105
0.00832996
0.000298649
5.41214e-09
9.94876e-10
9.64274e-10
8.71887e-10
4.86325e-10
1.99469e-09
0.000291892
0.00829994
0.00479659
0.000212352
8.26109e-08
4.22944e-12
1.73455e-13
3.11119e-13
1.64226e-13
1.19182e-08
0.000199535
0.00479334
0.00306649
0.000172831
5.2279e-07
1.36992e-13
1e-15
1e-15
2.69108e-14
5.36141e-08
0.000153217
0.00307355
0.00212025
0.000106955
6.94597e-07
1.69743e-11
1e-15
1e-15
6.90913e-12
2.91782e-07
0.000121293
0.00213076
0.00155878
0.000129948
9.60679e-07
1.86001e-09
3.48217e-12
7.92453e-15
1.47031e-10
2.81549e-07
7.06564e-05
0.00156746
0.00119969
9.41579e-05
9.45983e-07
6.41084e-09
7.30376e-12
8.71864e-15
3.21062e-10
3.67229e-07
9.51258e-05
0.00120837
0.000956765
5.74465e-05
5.93929e-07
5.61864e-09
9.86012e-12
6.8035e-15
5.6575e-10
2.77112e-07
6.25794e-05
0.000966415
0.000786538
7.41598e-05
9.81859e-07
3.98832e-09
7.37371e-12
1.14366e-14
3.1929e-10
2.5397e-07
6.62768e-05
0.000796282
0.000660472
6.20189e-05
9.25191e-07
8.54825e-09
6.8428e-11
3.58879e-14
4.92834e-10
3.24831e-07
5.02488e-05
0.000672145
0.000565937
5.98632e-05
1.00634e-06
8.27673e-09
4.97473e-11
9.10145e-14
6.84391e-10
4.10462e-07
5.4904e-05
0.000578017
0.000492893
6.3985e-05
1.26475e-06
1.05e-08
3.79423e-11
3.31499e-13
9.8166e-10
4.9514e-07
5.29987e-05
0.000506088
0.000435075
6.79035e-05
1.83502e-06
2.12456e-08
3.11427e-10
2.45884e-12
1.30908e-09
5.69343e-07
5.18165e-05
0.000448972
0.000388122
6.84626e-05
2.26878e-06
3.45112e-08
4.79958e-10
7.78934e-12
1.5346e-09
5.88448e-07
4.98091e-05
0.000403404
0.00034927
7.09521e-05
3.1021e-06
6.34549e-08
5.88553e-10
1.68013e-11
2.09269e-09
7.39212e-07
4.86449e-05
0.000365509
0.000316567
7.45178e-05
3.7432e-06
9.51682e-08
3.02864e-09
3.59951e-11
2.88181e-09
8.48493e-07
4.64829e-05
0.000335032
0.00028851
7.82359e-05
4.91424e-06
1.66867e-07
3.16962e-09
1.4325e-10
3.10795e-09
9.90647e-07
4.75336e-05
0.00030857
0.000263917
8.29177e-05
5.95099e-06
2.468e-07
1.36754e-08
2.15969e-10
4.09474e-09
9.71322e-07
4.26377e-05
0.000287538
0.000242013
8.85369e-05
7.89024e-06
3.90386e-07
1.58882e-08
8.61501e-10
4.46173e-09
1.0214e-06
4.34904e-05
0.000267927
0.000221902
9.29285e-05
9.77627e-06
6.27074e-07
4.76663e-08
2.44737e-09
4.53966e-09
9.75132e-07
4.16208e-05
0.000253045
0.000203075
0.000100394
1.25845e-05
9.51493e-07
6.03082e-08
4.66764e-09
5.05945e-09
9.11711e-07
3.87859e-05
0.000237273
0.000184889
0.000107002
1.66539e-05
1.56781e-06
1.71964e-07
7.45889e-09
4.63183e-09
7.96123e-07
3.46044e-05
0.000226251
0.000167136
0.000120365
2.15607e-05
2.5177e-06
2.37155e-07
3.30794e-08
7.62176e-09
6.6259e-07
3.00478e-05
0.000211812
0.000149372
0.000130566
3.1271e-05
4.10778e-06
6.17781e-07
5.00665e-08
1.32047e-08
5.08987e-07
2.52417e-05
0.00020265
0.000131409
0.000139182
4.98054e-05
7.59838e-06
9.87856e-07
1.82794e-07
2.52123e-08
3.70549e-07
1.99312e-05
0.000186524
0.000112639
0.000146748
7.10765e-05
1.37226e-05
2.51862e-06
3.17599e-07
4.8404e-08
2.68468e-07
1.59437e-05
0.000176875
9.38692e-05
0.000160218
9.57798e-05
2.54406e-05
4.97177e-06
1.07351e-06
2.64735e-07
2.65358e-07
1.11983e-05
0.000151518
7.43121e-05
0.00016839
0.000125807
4.04076e-05
1.08101e-05
2.47876e-06
5.97227e-07
3.0712e-07
1.02521e-05
0.000138953
0.113267
0.0163781
0.0143388
0.0143339
0.014334
0.014334
0.0143338
0.0143389
0.0163725
0.113158
0.039264
0.000825416
0.000311528
0.00030736
0.000306664
0.000306744
0.000307198
0.000312712
0.000824586
0.0390558
0.0165846
0.000432883
8.47681e-07
7.31855e-07
6.72715e-07
5.72409e-07
5.51364e-07
1.02546e-06
0.000432732
0.016511
0.00833032
0.000299534
4.56472e-09
2.58118e-10
4.63994e-10
8.70345e-10
8.45055e-10
2.68243e-09
0.000292516
0.00830067
0.00479696
0.000211362
7.02831e-08
1.31612e-13
2.6409e-13
9.35529e-13
2.92789e-12
1.65079e-08
0.000198467
0.00479413
0.00306667
0.000172113
2.71086e-07
2.29126e-10
1e-15
1e-15
1.30426e-14
6.44515e-08
0.000162617
0.00307396
0.0021203
0.000105876
3.19519e-07
3.02205e-10
1e-15
1e-15
2.46969e-13
1.41835e-07
0.000101803
0.00213077
0.00155866
0.000128264
3.9975e-07
1.77673e-10
1e-15
1e-15
2.35154e-11
2.97572e-07
0.000117445
0.00156774
0.00119963
0.000100555
5.41317e-07
5.33531e-10
1e-15
1e-15
2.51667e-10
3.40431e-07
8.38548e-05
0.00120843
0.00095682
6.8991e-05
3.3771e-07
6.60267e-10
9.42884e-15
4.64558e-15
1.91795e-10
1.92706e-07
4.90715e-05
0.000966272
0.000786359
7.09472e-05
9.17615e-07
1.59975e-09
2.01715e-12
7.99214e-15
3.07984e-10
2.66517e-07
6.4252e-05
0.000796282
0.000660155
6.28836e-05
7.84024e-07
4.13011e-09
9.95691e-12
1.33326e-14
5.5382e-10
3.53059e-07
5.19216e-05
0.000671928
0.000565702
6.49761e-05
8.63573e-07
4.84717e-09
3.91778e-11
2.91305e-14
7.92799e-10
4.23598e-07
5.01804e-05
0.000578051
0.000492873
6.5775e-05
1.02234e-06
7.53967e-09
5.15624e-11
1.72027e-13
1.25156e-09
5.41458e-07
5.14801e-05
0.000505997
0.000435091
6.74889e-05
1.41341e-06
1.31683e-08
9.22218e-11
1.83824e-13
1.72197e-09
6.79051e-07
5.18548e-05
0.000448774
0.000388145
6.82409e-05
1.77864e-06
1.92425e-08
2.34779e-10
8.7548e-13
2.28806e-09
8.31734e-07
5.13607e-05
0.000403302
0.000349273
7.03707e-05
2.51454e-06
4.05879e-08
3.16456e-10
1.66801e-11
3.27857e-09
9.70063e-07
5.4038e-05
0.000365603
0.000316553
7.34888e-05
3.17407e-06
7.0131e-08
1.61288e-09
9.40024e-10
3.90116e-09
1.06559e-06
4.97198e-05
0.000335251
0.000288481
7.7875e-05
4.29292e-06
1.16268e-07
3.55395e-09
1.26431e-10
4.2991e-09
1.15848e-06
5.12148e-05
0.000308866
0.00026391
8.22902e-05
5.56611e-06
2.06978e-07
6.89758e-09
2.62624e-10
5.36273e-09
1.1817e-06
5.05431e-05
0.000288098
0.000242017
8.75866e-05
7.29229e-06
3.35211e-07
1.0284e-08
6.12333e-10
5.58873e-09
1.17702e-06
4.73353e-05
0.000268328
0.000221894
9.20681e-05
9.53269e-06
5.67322e-07
3.97907e-08
1.85199e-09
5.78816e-09
1.0965e-06
4.38853e-05
0.000253591
0.000203066
9.99953e-05
1.22623e-05
9.135e-07
5.2097e-08
3.65771e-09
5.7047e-09
9.65273e-07
3.96603e-05
0.000237514
0.000184902
0.000106966
1.67425e-05
1.54263e-06
1.57649e-07
6.12126e-09
6.21566e-09
7.98574e-07
3.50722e-05
0.000226626
0.000167182
0.000120862
2.16922e-05
2.57099e-06
2.29958e-07
3.18237e-08
7.39116e-09
6.54169e-07
3.03554e-05
0.000211982
0.000149433
0.000131002
3.20376e-05
4.19677e-06
6.15276e-07
4.78922e-08
1.2427e-08
4.9275e-07
2.54326e-05
0.000202994
0.00013146
0.00013949
5.02995e-05
7.92646e-06
1.0267e-06
1.83364e-07
2.32322e-08
3.7612e-07
2.05393e-05
0.000186915
0.000112644
0.000146843
7.17891e-05
1.37369e-05
2.54975e-06
3.27385e-07
5.2104e-08
2.50774e-07
1.61945e-05
0.000177428
9.38301e-05
0.000160177
9.59995e-05
2.61048e-05
5.08485e-06
1.09237e-06
2.67816e-07
2.56761e-07
1.17492e-05
0.000152681
7.41711e-05
0.000168172
0.000125677
4.06469e-05
1.09973e-05
2.61581e-06
6.13532e-07
2.98615e-07
1.01983e-05
0.00013682
0.113285
0.0163765
0.0143388
0.0143337
0.0143338
0.0143338
0.0143338
0.0143387
0.0163709
0.113177
0.0393196
0.000825838
0.000313021
0.000308116
0.000307288
0.000307386
0.000308382
0.000313187
0.000824731
0.0391115
0.016639
0.000430593
1.26621e-06
6.57177e-07
5.79725e-07
5.96071e-07
8.6921e-07
9.98697e-07
0.000431319
0.0165653
0.00837126
0.00029421
7.24349e-09
9.53458e-10
8.76667e-10
8.95801e-10
2.27763e-10
2.36821e-09
0.00029079
0.00834181
0.00482758
0.00020379
1.55493e-07
1.18287e-12
1.94891e-12
5.16263e-12
2.31617e-13
2.04038e-08
0.000198526
0.00482527
0.00308956
0.000166872
4.92717e-07
2.82143e-12
4.33045e-13
1.13142e-12
2.22117e-11
1.17427e-07
0.000161492
0.0030971
0.00213776
0.000103869
8.13354e-07
1.66766e-10
1.14487e-12
1.3065e-12
2.149e-10
2.39229e-07
0.000100503
0.00214818
0.0015722
0.000129248
5.72447e-07
3.82358e-09
1.88961e-12
1.30309e-12
7.19466e-10
3.82946e-07
0.000120637
0.00158124
0.0012109
0.000122786
1.30509e-06
3.21258e-09
6.40113e-12
2.43301e-12
1.96399e-09
3.13351e-07
8.53833e-05
0.00121914
0.000965835
8.41864e-05
1.20101e-06
1.3238e-08
2.11875e-11
8.50743e-12
1.48522e-09
3.60676e-07
5.89677e-05
0.000974804
0.000793845
7.88351e-05
1.12851e-06
1.21566e-08
2.0383e-10
1.13195e-11
2.73899e-09
3.95875e-07
5.49318e-05
0.000803256
0.000665907
6.98661e-05
1.16665e-06
1.28658e-08
7.53723e-10
1.79005e-11
2.91311e-09
6.00166e-07
5.31593e-05
0.000676757
0.000570668
6.97382e-05
1.22122e-06
1.52223e-08
2.5413e-09
3.08093e-11
5.23609e-09
8.33814e-07
5.66732e-05
0.000582537
0.000497019
7.30768e-05
1.73701e-06
2.56601e-08
4.06798e-09
6.49773e-11
7.60127e-09
9.3252e-07
5.66455e-05
0.000510478
0.000438566
7.53669e-05
2.21147e-06
3.77444e-08
5.39401e-09
1.36395e-10
1.02244e-08
1.05568e-06
6.07828e-05
0.000453217
0.000391066
7.64105e-05
2.92749e-06
6.1825e-08
8.05736e-09
4.62129e-10
1.4271e-08
1.13986e-06
5.77472e-05
0.000407453
0.00035174
7.90667e-05
3.69212e-06
8.63768e-08
9.96256e-09
1.19878e-09
1.80544e-08
1.23402e-06
5.96205e-05
0.000369619
0.000318635
8.31494e-05
4.89559e-06
1.54153e-07
1.8093e-08
5.58713e-09
2.34969e-08
1.26119e-06
5.87686e-05
0.000339098
0.000290283
8.71932e-05
5.92729e-06
2.1614e-07
2.69096e-08
6.95275e-09
2.96986e-08
1.24111e-06
5.57635e-05
0.00031251
0.000265487
9.15672e-05
7.6193e-06
3.59413e-07
3.74444e-08
9.3215e-09
3.07863e-08
1.18353e-06
5.19897e-05
0.000291327
0.000243327
9.6206e-05
9.13856e-06
5.08813e-07
4.62409e-08
1.32361e-08
3.43238e-08
1.09747e-06
4.75021e-05
0.000271224
0.000223093
0.000102596
1.17999e-05
8.09734e-07
1.11997e-07
1.99015e-08
3.65256e-08
9.94811e-07
4.33152e-05
0.000256116
0.000204053
0.000109272
1.45279e-05
1.19118e-06
1.31194e-07
3.29102e-08
4.16825e-08
8.77164e-07
3.84873e-05
0.000239618
0.000185956
0.00011981
1.9283e-05
1.93924e-06
3.16709e-07
4.99066e-08
5.43591e-08
7.69212e-07
3.45149e-05
0.000228477
0.000168034
0.000127716
2.42179e-05
3.00258e-06
3.74837e-07
9.7362e-08
6.62996e-08
6.53341e-07
2.94634e-05
0.000213599
0.000150184
0.000135604
3.50226e-05
4.7444e-06
8.38591e-07
1.37247e-07
9.93554e-08
5.45012e-07
2.54632e-05
0.000204319
0.00013201
0.000139691
4.90864e-05
8.2314e-06
1.22729e-06
3.24617e-07
1.33723e-07
4.5673e-07
2.00881e-05
0.000188441
0.000113583
0.000147888
7.21445e-05
1.37936e-05
2.78115e-06
5.06441e-07
2.59345e-07
4.35402e-07
1.6857e-05
0.000178532
9.49904e-05
0.000157743
9.3358e-05
2.57974e-05
5.23568e-06
1.36185e-06
3.76375e-07
4.98503e-07
1.17834e-05
0.000154241
7.71576e-05
0.000169967
0.000125557
4.02475e-05
1.11648e-05
2.93946e-06
1.02252e-06
7.49606e-07
1.05361e-05
0.000139199
0.113362
0.0163865
0.0143436
0.0143387
0.0143389
0.0143388
0.0143386
0.0143435
0.016381
0.113256
0.0394966
0.000833908
0.000316886
0.000312463
0.000311766
0.000311807
0.000311963
0.000316436
0.000832867
0.0392889
0.0167833
0.00044021
1.05212e-06
9.85604e-07
9.05216e-07
8.64146e-07
8.28211e-07
8.22732e-07
0.00044005
0.0167075
0.00846462
0.000295151
1.51852e-08
2.92729e-09
2.12033e-09
1.87457e-09
2.51045e-09
1.40765e-08
0.00028727
0.00843376
0.00488935
0.000203659
8.14809e-08
2.26313e-08
1.79353e-08
1.62072e-08
1.63025e-08
1.44129e-08
0.000190055
0.0048871
0.00313044
0.000165823
2.34721e-07
8.05178e-08
8.23022e-08
3.77998e-08
5.8877e-08
2.42164e-08
0.000154365
0.00313825
0.00216439
0.000100275
4.22312e-07
1.14321e-07
1.32071e-07
7.76477e-08
8.91528e-08
3.64451e-08
9.72414e-05
0.00217491
0.00159017
0.000124863
1.07925e-06
5.93463e-07
4.67092e-07
4.75071e-07
2.98842e-07
1.49027e-07
0.000112008
0.00159895
0.00122316
0.000103594
9.39972e-07
4.10054e-07
3.4733e-07
2.78716e-07
4.09296e-07
2.07277e-07
6.99107e-05
0.00123057
0.000974947
7.30926e-05
8.89919e-07
3.56578e-07
3.35132e-07
4.82865e-07
1.7836e-07
5.97563e-07
8.38703e-05
0.000982589
0.000801216
7.29886e-05
9.81575e-07
6.51102e-07
5.48778e-07
4.53343e-07
5.89437e-07
4.00944e-07
6.53239e-05
0.000808186
0.000671723
6.72607e-05
1.21675e-06
7.35176e-07
7.65398e-07
6.55834e-07
5.56138e-07
1.07758e-06
5.78573e-05
0.000679173
0.000575754
6.9062e-05
1.64954e-06
1.00036e-06
1.00747e-06
9.29158e-07
8.36534e-07
1.79578e-06
6.13393e-05
0.000583195
0.000501496
7.09363e-05
2.17674e-06
1.24903e-06
1.24042e-06
1.01759e-06
1.22821e-06
2.369e-06
6.0389e-05
0.000509941
0.000442598
7.25958e-05
3.04388e-06
1.53827e-06
1.45811e-06
1.33185e-06
1.53618e-06
2.81294e-06
6.06203e-05
0.000452011
0.000394708
7.36812e-05
4.04259e-06
1.78645e-06
1.68097e-06
1.48474e-06
1.86834e-06
3.25011e-06
5.98509e-05
0.000405787
0.000355079
7.61065e-05
5.24268e-06
2.15738e-06
1.9585e-06
1.704e-06
2.16641e-06
3.60638e-06
5.9216e-05
0.000367675
0.000321639
7.99946e-05
6.32056e-06
2.58381e-06
2.11749e-06
1.99351e-06
2.47084e-06
3.83648e-06
6.0334e-05
0.00033696
0.000293012
8.52718e-05
7.65058e-06
2.86079e-06
2.41628e-06
2.1346e-06
2.67943e-06
3.90222e-06
5.78518e-05
0.000310378
0.000267863
8.95046e-05
9.44634e-06
3.43038e-06
2.66838e-06
2.43844e-06
2.82422e-06
4.11948e-06
5.41731e-05
0.000288992
0.000245448
9.64899e-05
1.13834e-05
3.99037e-06
2.772e-06
2.51279e-06
3.04256e-06
4.07415e-06
4.95025e-05
0.000269021
0.000224804
0.000102679
1.33817e-05
4.33629e-06
3.22464e-06
2.99607e-06
3.12657e-06
4.27516e-06
4.48452e-05
0.0002535
0.000205507
0.000110929
1.6955e-05
5.00525e-06
3.64902e-06
2.99744e-06
3.53042e-06
4.33738e-06
4.04807e-05
0.00023743
0.000186624
0.000117622
2.05825e-05
5.48614e-06
4.05869e-06
3.17247e-06
3.73688e-06
4.46002e-06
3.59563e-05
0.000225712
0.000168107
0.000130325
2.75079e-05
7.09591e-06
4.18307e-06
3.60473e-06
3.76494e-06
4.60562e-06
3.25057e-05
0.000211793
0.000149119
0.000138856
3.85937e-05
9.52448e-06
4.91083e-06
4.14231e-06
4.30028e-06
4.70859e-06
2.77102e-05
0.00020219
0.000129675
0.000148256
6.04672e-05
1.49099e-05
6.36099e-06
5.15159e-06
5.04247e-06
5.13792e-06
2.49204e-05
0.000187802
0.000108908
0.000160497
8.51273e-05
2.30754e-05
9.71161e-06
6.64396e-06
6.49647e-06
6.32695e-06
2.05216e-05
0.000177311
8.8926e-05
0.000179115
0.000120914
4.08317e-05
1.53662e-05
9.39982e-06
8.67862e-06
8.42374e-06
2.0544e-05
0.000157382
7.56181e-05
0.000201423
0.000164717
7.25203e-05
3.07027e-05
1.6801e-05
1.28079e-05
1.23444e-05
2.44842e-05
0.000138205
0.113712
0.0185706
0.0163815
0.0163714
0.016373
0.016373
0.0163714
0.0163815
0.0185656
0.113612
0.039801
0.0013466
0.000833471
0.000825194
0.000824947
0.000825017
0.000825196
0.000833434
0.00134529
0.0396033
0.0169614
0.000894456
0.000442095
0.000433159
0.000432902
0.00043378
0.000432266
0.000440892
0.000898646
0.0168783
0.00854874
0.000950454
0.000280194
0.000289683
0.000290412
0.000293956
0.000292494
0.0002906
0.000943437
0.00851561
0.00492312
0.000716616
0.000165956
0.000194738
0.000195908
0.000200542
0.000199962
0.000194473
0.000674365
0.00492689
0.00314048
0.000515684
0.000131056
0.000161073
0.000161671
0.000164835
0.000164002
0.000158953
0.000582711
0.00315609
0.00215862
0.000299772
8.80047e-05
0.000100394
0.000101573
0.000102318
0.000101847
9.89211e-05
0.000497226
0.00217981
0.00157883
0.000375326
9.7588e-05
0.000119213
0.000120587
0.000121364
0.000124462
0.000116934
0.000339667
0.00159279
0.00120667
0.000332434
9.21411e-05
8.69999e-05
8.64921e-05
8.78966e-05
0.000100935
9.74315e-05
0.000170218
0.00121655
0.000955336
0.000236173
6.39516e-05
5.43964e-05
5.76287e-05
5.76701e-05