/*--------------------------------*- C++ -*----------------------------------*\
| =========                 |                                                 |
| \\      /  F ield         | OpenFOAM: The Open Source CFD Toolbox           |
|  \\    /   O peration     | Version:  4.1                                   |
|   \\  /    A nd           | Web:      www.OpenFOAM.org                      |
|    \\/     M anipulation  |                                                 |
\*---------------------------------------------------------------------------*/
FoamFile
{
    version     2.0;
    format      ascii;
    class       volScalarField;
    location    "1700";
    object      nut;
}
// * * * * * * * * * * * * * * * * * * * * * * * * * * * * * * * * * * * * * //

dimensions      [0 2 -1 0 0 0 0];

internalField   nonuniform List<scalar> 
12000
(
0.00382069
0.00372718
0.0037219
0.00372055
0.0037202
0.00372017
0.00372046
0.00372201
0.00373172
0.00382589
0.00226245
0.00223938
0.00223481
0.0022301
0.0022286
0.00222862
0.00223008
0.0022343
0.00223698
0.00225715
0.00146315
0.00145973
0.00145701
0.00145243
0.00145043
0.00145049
0.00145267
0.00145779
0.00145833
0.00146068
0.00103178
0.00102801
0.00103046
0.00102935
0.00102787
0.00102809
0.00103024
0.00103412
0.00102564
0.00102763
0.000784254
0.000780235
0.000781701
0.000781345
0.000780089
0.000780423
0.000782958
0.000788462
0.00077806
0.000778942
0.00062682
0.000629489
0.000626277
0.000625072
0.000623633
0.000623892
0.00062635
0.000632433
0.000627599
0.000622831
0.000517785
0.000526795
0.000521726
0.000519505
0.000517835
0.000518007
0.000520227
0.000525325
0.000525172
0.00051616
0.000439651
0.000452388
0.000448301
0.000445986
0.000444194
0.00044424
0.000446257
0.000450194
0.000451106
0.000439903
0.000381821
0.00039419
0.000393314
0.000391359
0.000389806
0.00038999
0.000391783
0.000393946
0.000393326
0.000383148
0.000338522
0.000350128
0.000351636
0.000349487
0.00034846
0.000348243
0.000349768
0.000352022
0.000350444
0.000340196
0.000304954
0.000314385
0.000318727
0.000317483
0.000316348
0.000316147
0.000317827
0.000319389
0.000315621
0.000307002
0.000278486
0.00028716
0.000291887
0.000290663
0.000289638
0.000289877
0.000290777
0.000292174
0.000289317
0.000280789
0.00025684
0.000263782
0.000269783
0.000269084
0.000268242
0.000268451
0.000269416
0.000270667
0.000267493
0.00025969
0.000238968
0.000246691
0.000252107
0.000251568
0.000250772
0.000251141
0.000252223
0.000253294
0.000248988
0.00024233
0.000223791
0.000232337
0.000237466
0.000237039
0.0002364
0.000236554
0.000237585
0.000238549
0.000233646
0.00022788
0.000210662
0.000220227
0.000224752
0.000224434
0.000224023
0.000224352
0.000225411
0.000226353
0.00022135
0.00021567
0.000199046
0.000209056
0.000213899
0.000213696
0.00021328
0.000213623
0.000214676
0.000215622
0.000210726
0.00020532
0.000188644
0.000199385
0.000204263
0.00020416
0.000203927
0.000204306
0.000205351
0.000206487
0.000202027
0.000196397
0.000179102
0.000190404
0.000195701
0.000195796
0.000195645
0.00019616
0.000197246
0.000198475
0.000194415
0.000188827
0.00017018
0.000182455
0.000188029
0.000188319
0.000188469
0.000189168
0.000190343
0.000191668
0.000187578
0.000182229
0.000161551
0.000174881
0.00018112
0.000181735
0.000182059
0.000182843
0.000184105
0.00018574
0.000182142
0.000176799
0.000152859
0.000167611
0.000174552
0.000175738
0.00017637
0.000177469
0.000178901
0.000180574
0.000177276
0.000172041
0.000143683
0.000160181
0.000168621
0.000170288
0.000171097
0.000172353
0.000173979
0.000176142
0.000173695
0.000168434
0.000133311
0.00015228
0.000162401
0.000165099
0.000166431
0.000168109
0.000169966
0.00017224
0.000170314
0.000165254
0.000120717
0.000142777
0.000156017
0.000160012
0.000161702
0.000163617
0.000165951
0.000169063
0.00016799
0.000163346
0.000103033
0.000131208
0.000148448
0.000154751
0.00015754
0.000160142
0.000162593
0.00016612
0.000165825
0.00016213
7.68337e-05
0.000114189
0.000139149
0.000148139
0.00015221
0.000155435
0.000159106
0.000163874
0.000164861
0.000160891
6.26413e-05
9.46309e-05
0.000124848
0.000140345
0.000147127
0.000151616
0.000154848
0.000161476
0.000163877
0.000165216
7.24742e-05
8.82701e-05
0.000103117
0.000119757
0.000135702
0.000144927
0.000151725
0.000156668
0.000164436
0.000159982
9.25476e-05
0.000105366
0.000110065
0.000111776
0.000115188
0.000126999
0.000137181
0.00015563
0.000159834
0.000172259
0.00372719
3.49744e-05
2.71075e-05
2.70908e-05
2.71001e-05
2.71001e-05
2.70909e-05
2.71066e-05
3.49133e-05
0.00372242
0.00223934
3.33064e-06
1.80612e-06
1.77186e-06
1.76976e-06
1.77138e-06
1.77054e-06
1.80525e-06
3.3055e-06
0.00220597
0.00145963
3.2889e-05
1.91978e-05
1.85454e-05
1.85795e-05
1.85952e-05
1.84913e-05
1.91024e-05
3.32781e-05
0.00143815
0.00102781
0.00027045
3.74831e-05
4.33918e-05
4.33429e-05
4.46535e-05
4.43039e-05
4.16942e-05
0.000260026
0.00101234
0.000779918
0.000329857
3.24973e-05
5.35588e-05
5.30878e-05
5.60574e-05
5.55372e-05
4.96379e-05
0.000327343
0.000776958
0.000629092
0.000605343
4.52849e-05
7.84248e-05
7.83199e-05
8.15098e-05
8.089e-05
7.27276e-05
0.000547678
0.000632896
0.000526342
0.000689619
4.17376e-05
6.01931e-05
5.99785e-05
6.17976e-05
6.08722e-05
5.76403e-05
0.000630741
0.000533775
0.000451898
0.000871977
0.000102002
0.000151737
0.000153582
0.000155484
0.000156946
0.00014733
0.000472297
0.000460252
0.000393649
0.000322262
7.35301e-05
0.000117651
0.000193513
0.000206969
0.00019823
9.03228e-05
0.000282342
0.000401163
0.000349484
0.000205198
0.000103198
4.05427e-05
0.000145523
7.84833e-05
6.35934e-05
0.000109168
0.000241706
0.00035559
0.00031362
0.000125484
5.9297e-05
6.66288e-05
0.00011469
7.64778e-05
8.59124e-05
8.48304e-05
0.000103466
0.000319474
0.000286247
0.000201129
4.49407e-05
3.56211e-05
4.97296e-05
3.71636e-05
4.02008e-05
4.08888e-05
0.000363236
0.000291454
0.000262662
0.000119016
3.73027e-05
4.13899e-05
4.53119e-05
3.73822e-05
4.47587e-05
4.33528e-05
0.000175709
0.000269191
0.00024536
0.0001357
4.4807e-05
4.02589e-05
4.25947e-05
3.52964e-05
4.35254e-05
4.02682e-05
8.44727e-05
0.000250501
0.00023075
0.000130616
4.32575e-05
5.31937e-05
5.37331e-05
4.66511e-05
5.4806e-05
5.17377e-05
7.60432e-05
0.000235096
0.000218351
0.000150494
5.77214e-05
5.02395e-05
4.72601e-05
4.45715e-05
5.04044e-05
4.64183e-05
6.4064e-05
0.000222443
0.000206819
0.000138634
5.3814e-05
4.84015e-05
4.40755e-05
4.64407e-05
5.4625e-05
4.84271e-05
8.41364e-05
0.00021165
0.000196728
0.000135781
5.46074e-05
4.9875e-05
4.78213e-05
4.5601e-05
5.21872e-05
5.60934e-05
7.3937e-05
0.000202534
0.000187279
0.000137355
5.92001e-05
5.51672e-05
4.71261e-05
4.99844e-05
5.85472e-05
5.34225e-05
8.01001e-05
0.00019446
0.00017879
0.000141585
6.60871e-05
5.54725e-05
5.31582e-05
5.30765e-05
6.13681e-05
5.94255e-05
7.55085e-05
0.00018737
0.000170718
0.000146478
7.33676e-05
5.89037e-05
5.48354e-05
5.50178e-05
6.43888e-05
6.43261e-05
8.72363e-05
0.000181201
0.000162874
0.000157186
8.02713e-05
6.42073e-05
5.83515e-05
5.78808e-05
6.35219e-05
6.84197e-05
9.07907e-05
0.000176071
0.000155165
0.000166585
9.36513e-05
7.04284e-05
6.34152e-05
6.22602e-05
6.6055e-05
6.98264e-05
9.5877e-05
0.000171382
0.000147006
0.000167605
0.000105042
7.4504e-05
6.83118e-05
6.36741e-05
6.90464e-05
7.258e-05
9.17744e-05
0.000166897
0.000138103
0.000175238
0.000121408
8.19458e-05
7.16205e-05
6.91235e-05
6.89602e-05
7.48142e-05
9.23735e-05
0.000162901
0.000127519
0.000180335
0.000147831
9.47466e-05
7.74598e-05
6.91755e-05
7.21411e-05
7.53951e-05
9.67065e-05
0.000160331
0.000114649
0.000195758
0.000162651
0.000109956
8.71796e-05
7.62967e-05
7.5875e-05
7.91721e-05
9.7214e-05
0.000156052
9.83122e-05
0.000204887
0.000195107
0.000138634
0.00010703
8.64397e-05
8.19048e-05
8.18563e-05
0.000102191
0.000159365
8.72501e-05
0.000226353
0.000217831
0.000168357
0.000128428
0.000109729
9.79103e-05
9.77661e-05
0.000103391
0.0001424
8.93121e-05
0.000245184
0.000260034
0.000235311
0.000162306
0.00013477
0.000116611
0.000113753
0.000131672
0.000176724
0.00372191
2.7109e-05
2.08466e-05
2.08467e-05
2.08503e-05
2.085e-05
2.08464e-05
2.08472e-05
2.70818e-05
0.00371049
0.00223475
1.80495e-06
7.41809e-07
7.51152e-07
7.5119e-07
7.3614e-07
7.37506e-07
7.453e-07
1.80561e-06
0.00219569
0.00145685
1.92524e-05
2.14804e-10
5.308e-10
6.18489e-10
2.75545e-10
2.65462e-10
2.54535e-10
1.93797e-05
0.00143304
0.00103016
3.65745e-05
2.81576e-13
7.98409e-13
1.65427e-12
1.436e-13
1.17778e-12
6.66118e-13
3.53789e-05
0.00101182
0.000781345
3.17044e-05
1.92724e-12
3.38117e-10
1.53175e-08
6.31479e-11
5.0993e-09
1.66423e-10
2.99595e-05
0.000773234
0.000625852
4.42858e-05
3.96452e-11
7.6631e-08
1.55351e-07
8.35587e-10
3.99207e-07
4.10153e-09
3.4515e-05
0.000625551
0.000521262
4.03675e-05
4.07474e-09
7.52342e-07
3.52417e-07
1.38822e-08
1.63208e-06
7.45895e-08
5.08958e-05
0.000525093
0.000447801
0.000106064
4.56589e-08
1.09492e-06
6.13466e-07
4.77858e-08
5.61676e-07
9.00574e-07
3.62234e-05
0.000452097
0.000392891
8.53914e-05
1.67048e-07
2.27997e-06
3.95159e-07
3.19721e-07
8.88176e-06
1.15615e-06
0.000109886
0.000396635
0.000350745
6.28088e-05
9.5353e-07
7.24309e-07
2.58608e-06
6.02911e-07
4.2779e-06
1.01282e-06
0.000168062
0.000354064
0.000318002
4.98783e-05
1.28271e-06
7.70082e-07
1.31331e-06
1.16026e-06
2.84399e-06
6.85488e-07
7.29203e-05
0.000320276
0.00029115
4.26587e-05
1.31306e-06
4.60554e-07
7.6751e-07
5.98537e-07
1.09837e-06
7.73765e-07
4.93352e-05
0.000293646
0.000268769
4.09403e-05
9.64891e-07
4.10709e-07
4.32935e-07
6.79476e-07
9.81191e-07
8.82493e-07
2.7553e-05
0.000270426
0.000251144
4.38466e-05
9.34707e-07
5.44872e-07
6.77717e-07
3.39558e-07
7.3438e-07
1.1182e-06
3.89394e-05
0.000252707
0.000236122
4.00375e-05
1.55335e-06
6.67925e-07
5.68089e-07
4.84846e-07
8.90922e-07
1.40886e-06
3.08955e-05
0.000237931
0.000223123
5.46941e-05
2.17923e-06
1.02075e-06
9.47305e-07
8.22933e-07
1.64027e-06
2.20085e-06
4.39719e-05
0.000225641
0.000211651
5.85326e-05
3.26349e-06
1.42806e-06
1.30104e-06
1.17343e-06
2.13346e-06
2.81348e-06
4.59154e-05
0.000214816
0.000201424
6.5579e-05
4.00751e-06
1.85089e-06
1.26375e-06
1.71714e-06
2.35356e-06
2.9903e-06
3.87643e-05
0.000205475
0.000192213
7.36231e-05
5.78382e-06
2.15969e-06
1.82817e-06
2.00671e-06
2.93728e-06
3.32666e-06
4.53094e-05
0.000197197
0.000183744
8.52332e-05
7.17445e-06
2.47038e-06
2.23985e-06
2.18998e-06
3.38714e-06
3.89321e-06
4.86789e-05
0.000190335
0.000175927
9.35752e-05
1.02885e-05
2.90003e-06
2.31801e-06
2.79331e-06
3.67456e-06
4.94407e-06
4.94285e-05
0.000183849
0.000168355
0.000100233
1.32465e-05
3.49964e-06
2.86426e-06
2.95232e-06
4.05094e-06
5.33639e-06
4.82664e-05
0.000178611
0.000161003
0.000112227
1.90067e-05
4.57314e-06
3.44618e-06
4.08192e-06
4.44503e-06
5.10433e-06
4.65789e-05
0.000173057
0.000153428
0.000123665
2.44056e-05
5.9457e-06
4.52473e-06
4.66215e-06
4.9634e-06
5.22704e-06
4.30866e-05
0.000168928
0.000145718
0.00014079
3.84314e-05
8.23145e-06
5.50652e-06
4.16242e-06
5.13892e-06
5.48903e-06
4.04503e-05
0.000163337
0.000137368
0.000145927
5.52596e-05
1.27677e-05
6.66225e-06
4.71576e-06
6.21361e-06
5.99261e-06
3.59069e-05
0.000160189
0.000128353
0.00015953
8.85415e-05
2.1036e-05
8.20553e-06
5.55579e-06
5.74012e-06
6.35491e-06
3.21961e-05
0.000153394
0.000117984
0.000172528
0.000112111
3.74114e-05
1.36392e-05
7.94418e-06
6.63603e-06
6.77882e-06
2.72911e-05
0.000151411
0.000106863
0.000191185
0.000156306
6.03141e-05
2.45395e-05
1.23676e-05
8.83131e-06
8.56122e-06
2.14396e-05
0.000137932
9.84546e-05
0.000210664
0.000188394
0.000105952
4.7567e-05
2.55857e-05
1.5413e-05
1.21195e-05
2.08085e-05
0.000142713
0.00372055
2.70925e-05
2.08464e-05
2.08471e-05
2.08504e-05
2.08505e-05
2.08468e-05
2.08464e-05
2.7066e-05
0.00370857
0.00223006
1.77366e-06
7.37612e-07
7.29259e-07
7.12425e-07
6.99206e-07
7.26714e-07
7.40841e-07
1.77338e-06
0.00219077
0.00145232
1.86013e-05
2.65354e-10
2.69478e-10
1.34961e-10
7.76253e-11
2.50074e-10
3.40204e-10
1.87324e-05
0.00142863
0.00102909
4.37178e-05
3.62676e-14
3.43725e-15
1.11368e-15
8.59998e-16
1.28796e-15
3.50177e-14
4.20349e-05
0.00101102
0.000781012
5.35986e-05
9.1327e-12
1.32187e-18
9.26861e-20
2.85534e-19
8.97732e-20
1.40208e-11
4.77113e-05
0.000772786
0.000624658
7.88035e-05
1.95585e-10
1.48237e-12
1.55477e-17
9.5965e-19
5.58179e-20
9.11882e-10
7.09849e-05
0.000623953
0.000519034
6.1624e-05
4.34478e-09
1.1681e-09
7.50135e-13
1.76581e-16
1.39964e-13
2.93356e-08
5.75372e-05
0.000522412
0.000445424
0.000158093
2.89106e-08
1.6887e-09
1.09824e-10
9.58479e-15
1.3662e-09
2.81117e-07
0.000141004
0.000449088
0.000390713
0.000121364
2.45304e-07
1.48081e-08
4.07152e-10
4.60676e-13
3.0427e-08
3.21837e-07
0.000107438
0.000394134
0.000348665
3.95993e-05
1.60664e-07
2.94526e-09
4.94297e-10
3.18894e-13
9.39698e-09
1.09303e-07
4.74359e-05
0.000351926
0.000316521
6.71351e-05
2.21422e-06
6.04544e-08
3.61376e-09
2.03434e-12
1.66482e-08
2.15238e-07
5.7412e-05
0.000319093
0.000289464
3.39009e-05
5.36359e-07
2.07288e-08
2.01261e-09
1.00808e-11
7.3159e-09
1.81364e-07
4.42966e-05
0.000292738
0.000267649
4.21157e-05
8.4482e-07
1.54242e-08
2.27881e-09
6.15429e-11
7.74823e-09
3.70326e-07
3.02122e-05
0.000270941
0.000249999
4.1109e-05
5.77158e-07
5.74805e-09
4.72371e-09
9.40328e-10
4.22309e-09
3.85258e-07
3.1116e-05
0.000253459
0.000235032
5.12001e-05
1.1983e-06
1.36176e-08
1.79592e-09
1.85205e-09
5.74132e-09
4.06866e-07
3.88308e-05
0.000238804
0.000222049
5.45767e-05
1.75579e-06
2.72935e-08
4.01396e-09
2.60318e-09
9.31588e-09
4.43984e-07
4.14654e-05
0.000226571
0.000210585
5.84692e-05
2.8038e-06
5.64713e-08
5.64568e-09
3.17093e-09
1.31271e-08
5.12602e-07
3.83842e-05
0.000215732
0.000200408
6.28361e-05
3.52118e-06
1.04443e-07
1.078e-08
7.96349e-09
1.82641e-08
6.22907e-07
3.9241e-05
0.000206528
0.000191205
7.03367e-05
4.7098e-06
1.57707e-07
1.88944e-08
1.38199e-08
2.69104e-08
7.6078e-07
4.01689e-05
0.000198179
0.000182786
7.79455e-05
6.04955e-06
2.71717e-07
2.33985e-08
2.19265e-08
2.99106e-08
8.41573e-07
3.96679e-05
0.000191341
0.000174961
8.59854e-05
8.43231e-06
4.22799e-07
6.25667e-08
2.50928e-08
4.81806e-08
8.88634e-07
3.82846e-05
0.000184605
0.000167453
9.16756e-05
1.09143e-05
7.46699e-07
5.57383e-08
5.37965e-08
5.59576e-08
8.80972e-07
3.66166e-05
0.000179433
0.000160192
0.000102559
1.46431e-05
1.16048e-06
2.46912e-07
4.61889e-08
6.69465e-08
8.33261e-07
3.40694e-05
0.000173475
0.000152768
0.00010987
1.95044e-05
2.0964e-06
1.67686e-07
1.52069e-07
9.86699e-08
7.70628e-07
3.18579e-05
0.000169356
0.000145153
0.000127938
2.65605e-05
3.19146e-06
6.8514e-07
9.45318e-08
9.32429e-08
7.09099e-07
2.89713e-05
0.000163435
0.000137212
0.000136422
4.50725e-05
6.03256e-06
5.58575e-07
2.79397e-07
2.50521e-07
6.07032e-07
2.5934e-05
0.000159915
0.00012867
0.000145619
6.20373e-05
1.11105e-05
2.30977e-06
2.26324e-07
1.40019e-07
6.0528e-07
2.2415e-05
0.000152861
0.000119388
0.000158062
9.22971e-05
1.96455e-05
2.8298e-06
9.61785e-07
6.65663e-07
5.12484e-07
1.75886e-05
0.000149527
0.000109209
0.000169963
0.000115064
3.74328e-05
8.91382e-06
1.29612e-06
3.25013e-07
5.18062e-07
1.35371e-05
0.000138437
9.84217e-05
0.000185405
0.0001566
5.52568e-05
1.58242e-05
5.12273e-06
1.5902e-06
9.65286e-07
8.29469e-06
0.000130165
0.00372021
2.71018e-05
2.08503e-05
2.08507e-05
2.08545e-05
2.08546e-05
2.08508e-05
2.08503e-05
2.70751e-05
0.00370821
0.00222858
1.77477e-06
7.42525e-07
7.13146e-07
7.13455e-07
6.99918e-07
7.24951e-07
7.35741e-07
1.77287e-06
0.00218928
0.00145037
1.86568e-05
3.63517e-10
1.36191e-10
1.49559e-10
8.3556e-11
2.4137e-10
2.72133e-10
1.87804e-05
0.00142678
0.00102773
4.51927e-05
3.87931e-13
1.09599e-15
7.48314e-16
8.99101e-16
4.02491e-15
3.23882e-14
4.29925e-05
0.00101
0.000779855
5.76344e-05
1.27022e-09
6.76743e-20
3.27583e-21
4.81665e-21
3.54748e-18
1.39463e-11
5.037e-05
0.000771884
0.000623256
8.38484e-05
1.97586e-07
1.64481e-20
8.76235e-22
6.45125e-21
6.61349e-19
1.2064e-09
6.54534e-05
0.000622673
0.000517324
6.38487e-05
7.63693e-07
5.18677e-14
1.8951e-19
3.24755e-19
1.29498e-13
1.59124e-07
8.43047e-05
0.000520788
0.000443603
0.000163698
2.48233e-06
2.79185e-09
8.43026e-12
8.98675e-17
1.10818e-10
2.70737e-07
5.22024e-05
0.000447079
0.00038895
0.000130152
1.99142e-06
3.69953e-08
4.47258e-11
1.03675e-17
2.9181e-10
4.0228e-07
0.000143681
0.000392262
0.000346952
3.81242e-05
6.58405e-07
9.78194e-09
4.68204e-11
1.72054e-18
1.04231e-09
2.21215e-07
7.93502e-05
0.000350314
0.000315076
7.4549e-05
1.15255e-06
3.07552e-09
3.20601e-12
5.04696e-18
7.05797e-11
1.60819e-07
7.08239e-05
0.000317774
0.000288109
3.5289e-05
5.93389e-07
1.19511e-08
1.63994e-10
4.78228e-17
1.64653e-10
2.34209e-07
4.60691e-05
0.000291597
0.000266591
3.88603e-05
5.94466e-07
5.04625e-09
1.0667e-10
3.25954e-16
2.30797e-10
2.6008e-07
4.53017e-05
0.000269861
0.000248862
4.15451e-05
7.79675e-07
6.39287e-09
7.08664e-12
7.50987e-15
4.2691e-10
3.42503e-07
3.99914e-05
0.000252627
0.000234108
5.59906e-05
1.47463e-06
1.90833e-08
3.49843e-10
8.22487e-13
7.73503e-10
4.3921e-07
4.92403e-05
0.000238065
0.000221208
5.24304e-05
1.92825e-06
3.10485e-08
5.78102e-10
7.32779e-12
8.42832e-10
3.99323e-07
4.24093e-05
0.000225771
0.000209851
5.48783e-05
2.91976e-06
6.13524e-08
3.57575e-10
1.52262e-11
1.43814e-09
7.2213e-07
3.95934e-05
0.000214818
0.00019975
6.06229e-05
3.50635e-06
8.69126e-08
7.63571e-09
2.66956e-11
2.51569e-09
9.29735e-07
3.83366e-05
0.000205569
0.000190677
6.6819e-05
4.92282e-06
1.79153e-07
1.64677e-09
3.97871e-10
2.7475e-09
1.15393e-06
4.27336e-05
0.000197135
0.000182307
7.53627e-05
5.91562e-06
2.52156e-07
4.95555e-08
1.35893e-10
4.58585e-09
1.08538e-06
3.68911e-05
0.000190131
0.000174537
8.43365e-05
8.52017e-06
4.35619e-07
1.07805e-08
2.41329e-09
5.45588e-09
1.25832e-06
4.24915e-05
0.00018354
0.000167169
9.02705e-05
1.0464e-05
7.11384e-07
8.78559e-08
2.82324e-09
6.13039e-09
1.2701e-06
4.35547e-05
0.000178449
0.00015989
0.00010009
1.40877e-05
1.09678e-06
4.14667e-08
5.07367e-09
6.18361e-09
1.26074e-06
4.33314e-05
0.000172845
0.000152549
0.000107938
1.89261e-05
1.87451e-06
2.91443e-07
5.49198e-09
5.25394e-09
1.13974e-06
3.98808e-05
0.000168985
0.000144978
0.000125902
2.4894e-05
3.0741e-06
1.88599e-07
7.10235e-08
1.19205e-08
9.64486e-07
3.62448e-05
0.000163428
0.00013695
0.000133364
3.94356e-05
4.95639e-06
1.00576e-06
3.549e-08
2.18325e-08
7.58054e-07
3.07326e-05
0.000160332
0.000128356
0.00014481
6.08381e-05
9.89418e-06
9.44413e-07
3.28527e-07
3.26519e-08
5.17641e-07
2.50792e-05
0.00015273
0.000118647
0.000153834
8.66272e-05
1.81621e-05
3.93404e-06
2.85321e-07
4.07032e-08
4.58169e-07
1.96422e-05
0.000151329
0.0001081
0.000170349
0.000113869
3.41983e-05
6.25966e-06
1.81493e-06
9.50289e-07
3.50949e-07
1.39607e-05
0.000134209
9.57506e-05
0.000178571
0.000151661
5.32393e-05
1.53696e-05
3.03462e-06
6.40817e-07
3.85477e-07
1.07335e-05
0.000140852
0.00372019
2.71018e-05
2.085e-05
2.08505e-05
2.08544e-05
2.08545e-05
2.08506e-05
2.08506e-05
2.70751e-05
0.00370823
0.00222858
1.77248e-06
7.31436e-07
7.16236e-07
7.09813e-07
6.99598e-07
6.97725e-07
7.42375e-07
1.77305e-06
0.00218934
0.0014504
1.86366e-05
2.19473e-10
1.61954e-10
1.28985e-10
8.23023e-11
7.35377e-11
3.73611e-10
1.87794e-05
0.00142693
0.00102788
4.5513e-05
2.0503e-13
4.00579e-16
1.14314e-15
9.17427e-16
8.98777e-16
6.07109e-14
4.32491e-05
0.00101034
0.000780096
5.71021e-05
8.68159e-10
8.37377e-19
2.92989e-18
9.11844e-21
3.99174e-20
2.49087e-11
4.99768e-05
0.000772389
0.000623448
8.3166e-05
4.07476e-08
5.95436e-11
6.92259e-21
1.31012e-21
3.87457e-22
1.2951e-09
7.40137e-05
0.000623041
0.000517438
6.33263e-05
7.66072e-08
2.80235e-11
1.10593e-20
8.40524e-20
3.32928e-18
2.38885e-08
5.93153e-05
0.000520908
0.000443626
0.000160566
1.70833e-07
5.98637e-12
1.80316e-20
1.92764e-21
5.12218e-13
2.52642e-07
0.000144655
0.000447275
0.000389043
0.000151801
4.58781e-07
9.75377e-11
2.50381e-20
9.71029e-21
1.56013e-10
4.79607e-07
0.000111454
0.000392315
0.000347107
5.25994e-05
2.79745e-07
6.93874e-11
1.1897e-17
2.88957e-19
1.18683e-10
1.17093e-07
4.36222e-05
0.000350199
0.000315029
6.45945e-05
1.90195e-06
6.21221e-10
1.29e-12
5.35369e-19
1.38896e-10
1.65675e-07
7.32113e-05
0.000317747
0.000287871
3.37041e-05
9.47027e-07
6.55973e-09
2.25701e-11
1.54318e-18
2.86576e-10
2.08969e-07
3.76081e-05
0.000291346
0.000266314
4.3587e-05
8.64164e-07
3.45045e-09
5.39999e-10
5.85763e-18
4.42017e-10
2.58873e-07
3.96438e-05
0.000269853
0.000248863
4.29511e-05
5.25931e-07
1.03112e-08
2.21492e-11
6.81826e-16
8.41318e-10
3.77651e-07
3.6007e-05
0.000252503
0.000234045
5.36747e-05
9.16137e-07
4.85543e-09
2.57815e-11
3.79147e-16
1.08974e-09
4.65835e-07
4.67557e-05
0.000237821
0.000221222
5.16776e-05
1.20921e-06
8.52475e-09
1.17074e-10
2.09708e-14
1.71157e-09
8.30083e-07
4.17287e-05
0.000225573
0.00020988
5.45426e-05
2.12586e-06
3.3826e-08
1.12283e-10
8.81053e-12
2.92449e-09
9.53222e-07
4.51543e-05
0.000214714
0.000199778
5.88225e-05
2.69529e-06
6.03396e-08
3.82801e-09
1.63162e-08
3.76203e-09
1.08085e-06
3.96726e-05
0.000205467
0.000190672
6.83416e-05
3.98977e-06
1.02389e-07
2.92047e-09
4.78108e-10
4.32178e-09
1.29495e-06
4.56683e-05
0.000197115
0.000182303
7.56268e-05
5.44773e-06
1.96975e-07
7.21702e-09
2.02609e-10
6.58654e-09
1.39911e-06
4.87568e-05
0.000190434
0.000174557
8.34406e-05
7.67159e-06
3.56198e-07
7.52054e-09
4.09822e-09
7.246e-09
1.51157e-06
4.83728e-05
0.000183833
0.000167167
8.88814e-05
1.01793e-05
6.14636e-07
8.53127e-08
2.34251e-09
7.78058e-09
1.47064e-06
4.69452e-05
0.000178802
0.000159872
0.000100139
1.36572e-05
1.05451e-06
3.44434e-08
4.36634e-09
7.83348e-09
1.32537e-06
4.44986e-05
0.000173109
0.000152535
0.000108127
1.92177e-05
1.85146e-06
2.68002e-07
4.33605e-09
7.76549e-09
1.10609e-06
4.03905e-05
0.000169188
0.000144997
0.00012672
2.51244e-05
3.17836e-06
1.82867e-07
7.36439e-08
1.10586e-08
9.18249e-07
3.65439e-05
0.000163575
0.000137011
0.000134002
4.10588e-05
5.16312e-06
1.02012e-06
3.38372e-08
1.77974e-08
6.99675e-07
3.08125e-05
0.000160348
0.000128443
0.000145246
6.15824e-05
1.05525e-05
1.01051e-06
3.33247e-07
3.06828e-08
5.29807e-07
2.60308e-05
0.000152906
0.000118736
0.000153953
8.78033e-05
1.80013e-05
3.99172e-06
3.01865e-07
4.87957e-08
3.61952e-07
1.98493e-05
0.000151014
0.000108201
0.000170306
0.000114022
3.56278e-05
6.39672e-06
1.8381e-06
8.0541e-07
3.79721e-07
1.4911e-05
0.00013674
9.57879e-05
0.000178217
0.000151401
5.32306e-05
1.5845e-05
3.38287e-06
6.19863e-07
3.13457e-07
1.06178e-05
0.000132319
0.00372047
2.70928e-05
2.08466e-05
2.08468e-05
2.08506e-05
2.08506e-05
2.08467e-05
2.08468e-05
2.70661e-05
0.00370861
0.00223005
1.77103e-06
7.53331e-07
7.10853e-07
7.01235e-07
7.03231e-07
7.26973e-07
7.42119e-07
1.77077e-06
0.00219087
0.0014526
1.85171e-05
6.60409e-10
1.18732e-10
8.4479e-11
9.12635e-11
2.59407e-10
3.44499e-10
1.86754e-05
0.00142911
0.00102991
4.3305e-05
1.61504e-12
9.73268e-16
9.27806e-16
9.91353e-16
3.33195e-16
6.35911e-14
4.27506e-05
0.00101252
0.000782511
5.26668e-05
6.3813e-09
9.8194e-20
2.46342e-20
8.52342e-20
5.06541e-18
6.66945e-11
5.01534e-05
0.000775154
0.000625807
7.82434e-05
1.72211e-07
2.46518e-17
7.82996e-21
7.44052e-21
3.43497e-13
8.69007e-09
7.40074e-05
0.000625665
0.000519611
5.99841e-05
8.06002e-07
3.58805e-12
9.26232e-19
9.10719e-20
2.60426e-11
1.06342e-07
5.76821e-05
0.000523156
0.000445477
0.0001571
7.03892e-07
7.58419e-09
1.55502e-17
8.36011e-19
2.39945e-10
3.92933e-07
0.000146698
0.000449246
0.000390982
0.000224165
5.36064e-06
3.1503e-09
6.97262e-16
8.19153e-18
1.32289e-09
2.07257e-07
0.000112133
0.000394054
0.000348753
7.17984e-05
5.84704e-06
4.10961e-08
2.15492e-14
2.23432e-16
4.82644e-10
1.70472e-07
4.83679e-05
0.000351725
0.000316562
7.66526e-05
1.62633e-06
1.56279e-08
5.2706e-12
5.86201e-16
2.41404e-09
1.57898e-07
4.51194e-05
0.00031911
0.000288852
3.70224e-05
1.45533e-06
7.62578e-09
1.53691e-10
2.27867e-15
1.86631e-09
4.31167e-07
2.88139e-05
0.000291865
0.000267421
4.46619e-05
5.03185e-07
5.78943e-09
2.01628e-09
9.84777e-15
3.08331e-09
6.2831e-07
3.81313e-05
0.000270411
0.000249782
4.72181e-05
1.29147e-06
1.82556e-08
3.73471e-09
6.09022e-14
4.9225e-09
6.29324e-07
3.49636e-05
0.000253368
0.000235035
6.01691e-05
1.6996e-06
2.89605e-08
3.07316e-09
3.64528e-13
6.09959e-09
7.81514e-07
5.49475e-05
0.000238895
0.000222078
5.79754e-05
2.35279e-06
4.86065e-08
5.53595e-09
7.73716e-12
9.71668e-09
8.78617e-07
4.4284e-05
0.000226513
0.000210633
6.10783e-05
3.3248e-06
6.83954e-08
6.31383e-09
1.2987e-10
1.37876e-08
1.04088e-06
4.79016e-05
0.000215723
0.000200413
6.83719e-05
4.72625e-06
1.47179e-07
1.98075e-08
3.53239e-09
1.95869e-08
1.15644e-06
5.01434e-05
0.00020667
0.000191221
7.52551e-05
5.73386e-06
2.079e-07
2.80743e-08
8.266e-09
3.01718e-08
1.2346e-06
5.02847e-05
0.000198415
0.000182813
8.39452e-05
7.8073e-06
3.74938e-07
5.07496e-08
7.3617e-09
2.87074e-08
1.26704e-06
4.92742e-05
0.000191712
0.000174991
9.11117e-05
9.62194e-06
5.53345e-07
4.31098e-08
1.41234e-08
3.32638e-08
1.25103e-06
4.72568e-05
0.000185009
0.000167543
9.92454e-05
1.27585e-05
8.98476e-07
2.52676e-07
1.46192e-08
3.67447e-08
1.18975e-06
4.49814e-05
0.000179923
0.000160217
0.000109778
1.63372e-05
1.38008e-06
1.27682e-07
3.12068e-08
4.26347e-08
1.09523e-06
4.17237e-05
0.000174051
0.000152957
0.000124651
2.19833e-05
2.314e-06
6.41597e-07
6.31656e-08
7.10187e-08
9.96035e-07
3.88798e-05
0.000169964
0.000145645
0.00013401
2.87799e-05
3.70342e-06
3.36331e-07
1.79667e-07
6.97329e-08
8.8461e-07
3.44977e-05
0.000164298
0.000137726
0.000139549
4.48765e-05
5.80261e-06
1.38681e-06
1.44872e-07
1.50174e-07
7.40906e-07
3.06245e-05
0.000160858
0.000129108
0.000144794
5.90062e-05
1.09002e-05
1.21162e-06
5.67685e-07
1.29008e-07
6.75491e-07
2.48682e-05
0.000153504
0.00011961
0.000155434
8.7938e-05
1.77621e-05
4.2694e-06
4.9147e-07
4.26425e-07
5.43363e-07
2.10458e-05
0.000151813
0.000109251
0.000166778
0.000109585
3.44884e-05
6.39541e-06
2.2429e-06
3.28895e-07
7.18189e-07
1.44731e-05
0.000136527
9.80526e-05
0.000181779
0.000151709
5.27913e-05
1.57663e-05
3.639e-06
1.51409e-06
8.33967e-07
1.05127e-05
0.000140241
0.00372203
2.71083e-05
2.0847e-05
2.08465e-05
2.08502e-05
2.08502e-05
2.08462e-05
2.08468e-05
2.70821e-05
0.0037104
0.00223429
1.80865e-06
7.52242e-07
7.40361e-07
7.34345e-07
7.31637e-07
7.29732e-07
7.35524e-07
1.80454e-06
0.00219527
0.00145774
1.91565e-05
3.61445e-10
3.32783e-10
2.64307e-10
2.31974e-10
2.04863e-10
1.82543e-10
1.92752e-05
0.00143379
0.00103387
4.25328e-05
1.00624e-12
7.45648e-14
4.22356e-14
2.3741e-14
3.57255e-14
2.10119e-13
4.00827e-05
0.00101575
0.000788153
5.12303e-05
2.21287e-10
2.84902e-11
2.70541e-11
8.84484e-12
1.58133e-11
1.42058e-12
4.41294e-05
0.000780622
0.00063195
7.59915e-05
6.09152e-09
1.7601e-09
1.83513e-09
2.12676e-10
6.9206e-10
1.24245e-11
6.56141e-05
0.000632023
0.00052461
5.7236e-05
6.71823e-08
1.63475e-08
1.37472e-08
4.82586e-09
3.31265e-09
1.08293e-10
5.42621e-05
0.000528573
0.0004493
0.00015294
1.09279e-06
8.71204e-07
3.78058e-07
4.96897e-07
7.40718e-08
9.2747e-09
0.000134741
0.000453263
0.000393521
0.00017109
1.50832e-06
2.48179e-07
3.10815e-07
1.82441e-07
2.6796e-07
5.83373e-08
7.96616e-05
0.00039654
0.000350541
5.62284e-05
8.65528e-07
2.00933e-07
1.65561e-07
5.8734e-07
6.86048e-08
8.19886e-07
0.000121756
0.000353426
0.000318042
6.87237e-05
1.53886e-06
7.60743e-07
3.47871e-07
3.15466e-07
1.6152e-06
2.44764e-07
7.3621e-05
0.000320177
0.000289915
3.58998e-05
4.32684e-07
4.5467e-07
4.61126e-07
3.97505e-07
3.53672e-07
7.05405e-07
3.60231e-05
0.000292119
0.000268513
4.52704e-05
8.7624e-07
5.54577e-07
6.38985e-07
6.58434e-07
8.19643e-07
1.48359e-06
4.49747e-05
0.00027026
0.000250854
4.61543e-05
1.49371e-06
1.43914e-06
8.63626e-07
5.78453e-07
1.10555e-06
1.50176e-06
3.82937e-05
0.000252937
0.000236096
5.94976e-05
2.4536e-06
1.23319e-06
9.73973e-07
1.31073e-06
1.08478e-06
2.98775e-06
5.49418e-05
0.000238375
0.000223113
5.68781e-05
3.95198e-06
1.37065e-06
1.53385e-06
1.19722e-06
1.82645e-06
2.96289e-06
4.69303e-05
0.000225898
0.00021165
5.92983e-05
5.2358e-06
1.71125e-06
1.94605e-06
1.70305e-06
2.25508e-06
3.31781e-06
4.5793e-05
0.000214966
0.000201389
6.58902e-05
6.22465e-06
2.53895e-06
2.18848e-06
2.00773e-06
2.50023e-06
3.73803e-06
5.06452e-05
0.000205847
0.000192166
7.41803e-05
7.89331e-06
2.92566e-06
2.54267e-06
2.32396e-06
2.78175e-06
3.96994e-06
5.1716e-05
0.000197676
0.000183685
8.23449e-05
1.02595e-05
3.93731e-06
3.05316e-06
2.92915e-06
3.08548e-06
4.95118e-06
5.11576e-05
0.000190926
0.000175756
9.35458e-05
1.29576e-05
4.94809e-06
3.15042e-06
3.02026e-06
3.6066e-06
4.65809e-06
4.90268e-05
0.000184373
0.000168187
0.00010177
1.51214e-05
5.50211e-06
4.07214e-06
4.1535e-06
3.78051e-06
5.29425e-06
4.63883e-05
0.000179052
0.000160831
0.00011277
2.01419e-05
6.42173e-06
4.87557e-06
3.96064e-06
4.71706e-06
6.05027e-06
4.36944e-05
0.000173401
0.00015332
0.000120542
2.33859e-05
6.87743e-06
5.97933e-06
4.30621e-06
5.15376e-06
5.93846e-06
4.03463e-05
0.000168877
0.000145582
0.00013585
3.36504e-05
9.33581e-06
5.17813e-06
5.00755e-06
4.99491e-06
6.27059e-06
3.80215e-05
0.000163568
0.000137125
0.000141793
4.81948e-05
1.23624e-05
6.63252e-06
5.80599e-06
6.1621e-06
6.14026e-06
3.32709e-05
0.000159796
0.000127837
0.000152982
7.63961e-05
2.07145e-05
7.83373e-06
7.33505e-06
7.02106e-06
7.16678e-06
3.05533e-05
0.000153778
0.000117091
0.000166789
0.000100765
2.97705e-05
1.38998e-05
9.36806e-06
9.45349e-06
7.6957e-06
2.63435e-05
0.000148699
0.000105729
0.000184614
0.000143549
5.30613e-05
1.91858e-05
1.26239e-05
1.16075e-05
1.14538e-05
2.21651e-05
0.000142222
9.70473e-05
0.000205193
0.00017973
9.13015e-05
4.11506e-05
2.31569e-05
1.75174e-05
1.46103e-05
2.51735e-05
0.000123169
0.00373173
3.49172e-05
2.70835e-05
2.70677e-05
2.70769e-05
2.70768e-05
2.70677e-05
2.70837e-05
3.48891e-05
0.00372076
0.0022369
3.30691e-06
1.80902e-06
1.77356e-06
1.77138e-06
1.774e-06
1.77218e-06
1.80765e-06
3.30909e-06
0.00219999
0.00145822
3.34069e-05
1.94798e-05
1.8795e-05
1.8827e-05
1.88413e-05
1.87328e-05
1.93229e-05
3.4217e-05
0.0014319
0.00102513
0.000254299
3.69687e-05
4.20821e-05
4.21375e-05
4.36454e-05
4.31248e-05
4.10294e-05
0.000252669
0.00100489
0.000778233
0.000369708
3.07463e-05
4.74051e-05
4.80236e-05
5.05201e-05
5.07401e-05
4.64362e-05
0.000326813
0.000770737
0.000626404
0.000386977
4.20946e-05
7.16372e-05
7.25283e-05
7.54315e-05
7.57134e-05
6.95179e-05
0.000499156