/*--------------------------------*- C++ -*----------------------------------*\
| =========                 |                                                 |
| \\      /  F ield         | OpenFOAM: The Open Source CFD Toolbox           |
|  \\    /   O peration     | Version:  4.1                                   |
|   \\  /    A nd           | Web:      www.OpenFOAM.org                      |
|    \\/     M anipulation  |                                                 |
\*---------------------------------------------------------------------------*/
FoamFile
{
    version     2.0;
    format      ascii;
    class       volScalarField;
    location    "1700";
    object      p;
}
// * * * * * * * * * * * * * * * * * * * * * * * * * * * * * * * * * * * * * //

dimensions      [0 2 -2 0 0 0 0];

internalField   nonuniform List<scalar> 
12000
(
0.0770768
0.0773562
0.0770205
0.0769003
0.0768627
0.0768612
0.0768958
0.0770135
0.0773468
0.0770639
0.0765107
0.0764954
0.0764337
0.0764366
0.0764233
0.0764217
0.0764319
0.0764261
0.0764853
0.0764976
0.0763917
0.0761551
0.0762184
0.0762674
0.0762696
0.0762677
0.076262
0.0762099
0.0761436
0.0763769
0.0763627
0.0760988
0.0761843
0.0762128
0.076213
0.0762107
0.0762062
0.076174
0.076085
0.0763452
0.0762664
0.0760468
0.0761334
0.076137
0.0761345
0.0761317
0.0761287
0.0761206
0.0760298
0.0762451
0.0761438
0.0759686
0.0760521
0.0760425
0.0760419
0.0760386
0.0760319
0.0760358
0.0759476
0.0761175
0.0760424
0.0759005
0.0759762
0.0759584
0.0759604
0.0759565
0.0759449
0.0759552
0.0758739
0.0760091
0.0759673
0.0758514
0.0759166
0.0758924
0.0758955
0.0758902
0.075875
0.0758897
0.0758173
0.0759247
0.0759076
0.0758121
0.075867
0.0758381
0.0758409
0.0758337
0.0758156
0.075832
0.0757674
0.0758524
0.0758572
0.0757771
0.0758227
0.0757901
0.0757914
0.075782
0.0757608
0.0757767
0.0757182
0.0757853
0.0758154
0.0757463
0.0757831
0.0757476
0.0757459
0.0757336
0.0757092
0.075723
0.075669
0.0757221
0.0757825
0.0757205
0.0757491
0.0757109
0.0757052
0.075689
0.075661
0.0756706
0.0756194
0.0756618
0.0757587
0.0757008
0.075721
0.0756795
0.0756686
0.0756474
0.0756147
0.0756184
0.0755683
0.0756022
0.0757442
0.0756879
0.0756989
0.0756527
0.0756347
0.0756072
0.0755683
0.0755651
0.0755141
0.0755406
0.0757396
0.0756824
0.0756831
0.0756302
0.0756032
0.0755673
0.0755207
0.075509
0.0754556
0.075475
0.0757465
0.075686
0.0756744
0.0756124
0.0755736
0.0755269
0.0754705
0.0754483
0.0753906
0.075403
0.0757669
0.0757009
0.0756742
0.0755999
0.075546
0.0754852
0.0754159
0.0753806
0.0753162
0.0753212
0.0758031
0.0757294
0.0756839
0.0755932
0.07552
0.0754411
0.075355
0.0753032
0.0752288
0.0752256
0.0758576
0.0757746
0.0757053
0.0755931
0.0754955
0.0753934
0.0752852
0.0752123
0.0751238
0.0751109
0.0759326
0.0758396
0.0757401
0.0756004
0.0754724
0.0753403
0.0752034
0.0751033
0.074995
0.0749702
0.076029
0.0759272
0.0757906
0.0756162
0.0754503
0.0752803
0.0751056
0.0749698
0.074834
0.0747938
0.0761449
0.0760386
0.0758587
0.0756419
0.0754295
0.0752112
0.074987
0.0748032
0.074629
0.0745677
0.0762736
0.0761707
0.0759458
0.0756793
0.0754107
0.0751313
0.0748414
0.0745919
0.0743625
0.074271
0.076402
0.0763134
0.0760525
0.0757318
0.0753963
0.0750393
0.0746616
0.0743198
0.0740085
0.0738708
0.0765113
0.0764475
0.0761773
0.0758054
0.0753906
0.0749348
0.074439
0.0739643
0.0735255
0.0733112
0.0765842
0.0765513
0.0763181
0.07591
0.0754021
0.0748193
0.0741623
0.0734919
0.0728449
0.0724924
0.0766231
0.07662
0.0764714
0.076052
0.0754397
0.0746967
0.0738198
0.0728559
0.0718503
0.0712018
0.0766555
0.0767014
0.0766385
0.0762203
0.0755026
0.0745654
0.0733879
0.0719734
0.0703385
0.0689746
0.0766628
0.0767408
0.0767052
0.0763149
0.0755404
0.074413
0.0728609
0.0707502
0.0680229
0.0643678
0.0766089
0.0766531
0.0765523
0.0761533
0.0753793
0.0740887
0.0720868
0.0688285
0.0644899
0.0536668
0.0773576
0.0773921
0.0770632
0.0769453
0.0769053
0.0769038
0.0769408
0.0770561
0.0773829
0.0773439
0.0764966
0.0764476
0.0764134
0.0764205
0.0764054
0.0764038
0.0764157
0.0764059
0.0764376
0.0764833
0.0761567
0.0759398
0.0760255
0.0760807
0.0760817
0.0760798
0.0760752
0.0760169
0.0759283
0.0761417
0.0761008
0.0758438
0.0759452
0.0759729
0.0759712
0.075969
0.0759663
0.0759348
0.0758298
0.076083
0.0760493
0.0758272
0.0759311
0.075927
0.075923
0.0759203
0.0759188
0.0759181
0.0758098
0.0760276
0.0759719
0.075789
0.0758908
0.075871
0.0758717
0.0758681
0.0758605
0.0758743
0.0757667
0.0759451
0.0759047
0.0757507
0.075843
0.0758147
0.0758207
0.0758161
0.0758012
0.0758218
0.0757222
0.0758708
0.0758569
0.0757265
0.0758058
0.075771
0.0757791
0.0757734
0.0757535
0.0757785
0.0756897
0.0758132
0.0758191
0.0757097
0.0757768
0.0757372
0.075745
0.0757377
0.0757145
0.0757414
0.0756622
0.0757621
0.0757861
0.0756933
0.0757496
0.0757074
0.0757136
0.0757042
0.0756779
0.0757039
0.0756321
0.0757114
0.0757577
0.0756774
0.0757235
0.0756797
0.0756829
0.0756708
0.0756411
0.0756639
0.0755981
0.0756607
0.0757351
0.0756641
0.0757002
0.0756543
0.0756532
0.0756375
0.075604
0.075622
0.0755608
0.0756097
0.0757193
0.0756544
0.0756804
0.0756318
0.0756247
0.0756042
0.0755664
0.0755786
0.0755201
0.0755571
0.0757112
0.0756494
0.0756648
0.0756122
0.0755974
0.0755706
0.0755274
0.0755324
0.0754749
0.0755009
0.0757116
0.0756502
0.075654
0.0755956
0.075571
0.075536
0.0754857
0.0754817
0.0754227
0.0754399
0.0757221
0.0756584
0.075649
0.0755823
0.0755453
0.0754997
0.07544
0.0754248
0.0753619
0.0753714
0.0757449
0.0756762
0.0756511
0.0755729
0.0755203
0.0754607
0.0753886
0.0753595
0.0752901
0.075292
0.0757819
0.0757059
0.0756616
0.0755678
0.0754956
0.0754181
0.0753295
0.0752831
0.0752039
0.0751974
0.0758355
0.07575
0.0756822
0.0755677
0.0754709
0.0753702
0.07526
0.0751917
0.0750986
0.0750823
0.0759075
0.0758115
0.0757143
0.0755732
0.0754456
0.0753153
0.0751768
0.0750802
0.0749675
0.0749392
0.0759988
0.0758926
0.0757597
0.0755849
0.0754192
0.075251
0.0750752
0.0749418
0.0748017
0.0747578
0.0761084
0.0759946
0.0758198
0.0756035
0.0753911
0.0751746
0.0749495
0.074767
0.0745881
0.0745231
0.0762318
0.0761161
0.0758957
0.0756304
0.0753614
0.0750832
0.0747924
0.0745428
0.0743078
0.0742123
0.0763592
0.0762518
0.0759884
0.0756676
0.0753309
0.074974
0.0745949
0.0742509
0.0739316
0.0737895
0.0764754
0.0763896
0.0760981
0.0757196
0.0753027
0.0748455
0.0743462
0.0738654
0.0734136
0.0731931
0.076564
0.0765118
0.0762245
0.0757934
0.0752824
0.0746975
0.0740329
0.0733488
0.0726772
0.0723135
0.0766171
0.0766008
0.0763617
0.0758943
0.0752781
0.0745331
0.0736414
0.072649
0.0715922
0.0709157
0.0766413
0.0766623
0.0764967
0.0760129
0.0752883
0.0743497
0.0731474
0.0716813
0.0699373
0.0684937
0.0766204
0.0766613
0.0765438
0.0760759
0.0752823
0.0741418
0.072543
0.0703374
0.0673934
0.0634874
0.0765706
0.0765448
0.0763486
0.0758865
0.0750855
0.0737751
0.0717294
0.0682991
0.0636811
0.052039
0.077023
0.0770644
0.0767578
0.0766352
0.0765937
0.0765922
0.0766307
0.0767508
0.0770553
0.0770086
0.0764361
0.0764146
0.0763862
0.0763882
0.076373
0.0763714
0.0763834
0.0763787
0.0764046
0.0764225
0.0762214
0.0760269
0.0761126
0.0761662
0.0761677
0.0761658
0.0761608
0.076104
0.0760154
0.0762063
0.0761881
0.075947
0.0760463
0.0760728
0.0760707
0.0760684
0.0760662
0.076036
0.075933
0.0761702
0.0761381
0.0759333
0.0760373
0.076031
0.0760262
0.0760234
0.0760227
0.0760244
0.0759159
0.0761164
0.0760579
0.0758937
0.0759993
0.0759776
0.0759787
0.0759752
0.0759671
0.0759829
0.0758716
0.0760309
0.0759836
0.0758467
0.0759447
0.0759151
0.0759231
0.0759186
0.0759017
0.0759237
0.0758184
0.0759492
0.0759262
0.0758105
0.0758966
0.0758604
0.0758712
0.0758656
0.0758429
0.0758695
0.0757741
0.0758821
0.0758795
0.0757828
0.0758573
0.075816
0.0758266
0.0758196
0.0757933
0.0758221
0.0757357
0.0758227
0.0758385
0.0757574
0.0758214
0.0757773
0.0757863
0.0757773
0.0757477
0.0757757
0.0756968
0.0757649
0.0758033
0.0757335
0.075787
0.0757413
0.0757476
0.0757359
0.0757028
0.0757275
0.075655
0.0757081
0.0757752
0.0757129
0.0757553
0.0757078
0.0757099
0.0756946
0.0756579
0.075678
0.0756109
0.0756517
0.0757546
0.0756968
0.0757279
0.0756778
0.0756738
0.0756538
0.075613
0.0756271
0.0755641
0.075595
0.0757421
0.0756859
0.0757054
0.0756515
0.0756398
0.0756135
0.0755677
0.075574
0.0755132
0.0755358
0.0757385
0.0756813
0.0756884
0.0756289
0.0756073
0.0755729
0.0755203
0.0755174
0.0754564
0.075471
0.0757451
0.0756845
0.0756777
0.0756101
0.0755761
0.075531
0.0754694
0.0754551
0.0753914
0.0753985
0.0757637
0.0756971
0.0756742
0.0755954
0.0755458
0.0754869
0.0754132
0.0753848
0.0753157
0.0753152
0.0757963
0.0757212
0.0756792
0.075585
0.0755159
0.0754392
0.0753495
0.0753038
0.0752256
0.0752167
0.0758446
0.0757591
0.0756938
0.0755792
0.0754857
0.0753862
0.0752753
0.0752078
0.0751161
0.0750976
0.07591
0.0758129
0.0757191
0.0755783
0.0754544
0.0753256
0.0751869
0.0750914
0.0749804
0.0749499
0.075993
0.0758846
0.0757562
0.0755823
0.0754208
0.0752546
0.0750791
0.0749473
0.0748089
0.0747628
0.076092
0.0759746
0.0758059
0.0755913
0.0753837
0.0751697
0.0749455
0.0747653
0.0745877
0.0745204
0.0762028
0.0760817
0.0758685
0.0756055
0.075342
0.0750672
0.0747779
0.0745313
0.0742968
0.0741987
0.0763175
0.0762011
0.0759437
0.0756256
0.0752952
0.0749429
0.0745658
0.0742253
0.0739052
0.0737593
0.0764259
0.0763238
0.0760303
0.0756534
0.0752443
0.0747935
0.0742966
0.0738194
0.0733639
0.0731374
0.0765161
0.076438
0.0761271
0.0756929
0.0751926
0.0746174
0.0739558
0.0732736
0.072592
0.0722167
0.0765793
0.0765312
0.0762305
0.0757487
0.0751488
0.0744195
0.0735315
0.0725359
0.0714533
0.0707521
0.0766142
0.0765949
0.0763314
0.0758226
0.0751244
0.0742123
0.0730147
0.0715342
0.0697246
0.0682208
0.0766224
0.0766208
0.0764055
0.0759151
0.0751562
0.0740531
0.0724597
0.0702238
0.0671287
0.0630638
0.0766218
0.0765999
0.0764116
0.0760077
0.0752804
0.074015
0.0719665
0.068476
0.0635791
0.0514875
0.0769042
0.0769479
0.0766365
0.076513
0.0764711
0.0764696
0.0765085
0.0766295
0.0769387
0.0768894
0.0764405
0.0764231
0.0763896
0.076392
0.0763768
0.0763752
0.0763872
0.0763821
0.076413
0.0764268
0.076272
0.0760836
0.0761678
0.0762239
0.0762254
0.0762235
0.0762184
0.0761593
0.0760721
0.0762568
0.0762184
0.0759766
0.0760746
0.0761031
0.0761007
0.0760985
0.0760965
0.0760643
0.0759626
0.0762005
0.0761439
0.0759316
0.0760332
0.0760273
0.0760218
0.076019
0.076019
0.0760204
0.0759142
0.0761222
0.0760515
0.0758767
0.0759804
0.0759581
0.0759586
0.0759552
0.0759476
0.075964
0.0758547
0.0760244
0.0759702
0.0758221
0.0759187
0.0758878
0.0758956
0.0758912
0.0758745
0.0758979
0.075794
0.0759352
0.0759075
0.0757806
0.0758652
0.0758267
0.0758376
0.0758321
0.0758094
0.0758384
0.0757445
0.0758622
0.0758575
0.0757497
0.0758224
0.0757783
0.0757891
0.075782
0.0757558
0.0757875
0.075703
0.0757991
0.0758153
0.0757237
0.0757856
0.0757384
0.0757477
0.0757385
0.0757091
0.0757402
0.0756634
0.07574
0.0757801
0.0757009
0.0757522
0.0757033
0.0757097
0.0756978
0.0756651
0.075693
0.0756226
0.0756831
0.0757527
0.075682
0.0757224
0.0756718
0.0756738
0.0756584
0.0756221
0.0756453
0.0755803
0.0756275
0.0757333
0.0756679
0.0756971
0.0756442
0.0756402
0.07562
0.0755797
0.0755966
0.0755353
0.0755719
0.0757223
0.0756592
0.0756767
0.0756206
0.0756086
0.0755823
0.0755368
0.0755459
0.0754863
0.0755139
0.0757201
0.0756568
0.0756618
0.0756006
0.0755788
0.0755443
0.0754919
0.0754914
0.0754313
0.0754505
0.0757279
0.0756619
0.0756529
0.0755843
0.07555
0.075505
0.0754435
0.0754312
0.0753681
0.0753792
0.0757473
0.0756761
0.0756508
0.0755715
0.0755216
0.0754631
0.0753895
0.0753629
0.075294
0.0752966
0.07578
0.075701
0.0756564
0.0755625
0.0754932
0.075417
0.0753275
0.0752833
0.075205
0.0751985
0.0758274
0.0757387
0.0756707
0.0755571
0.0754636
0.0753648
0.0752543
0.0751881
0.075096
0.075079
0.0758908
0.075791
0.0756945
0.0755554
0.0754319
0.075304
0.0751659
0.0750718
0.0749599
0.0749301
0.0759704
0.0758595
0.0757286
0.075557
0.0753964
0.0752315
0.0750569
0.0749264
0.0747867
0.0747406
0.0760645
0.0759447
0.0757734
0.0755617
0.0753557
0.0751434
0.0749203
0.0747414
0.0745622
0.0744941
0.0761696
0.0760456
0.0758291
0.0755691
0.0753081
0.0750354
0.0747476
0.0745021
0.0742655
0.0741656
0.0762794
0.0761583
0.0758959
0.0755798
0.0752527
0.0749032
0.0745278
0.0741882
0.0738651
0.0737163
0.0763857
0.076276
0.0759733
0.075596
0.0751909
0.0747439
0.0742489
0.0737719
0.0733116
0.0730801
0.0764799
0.0763899
0.0760616
0.075623
0.0751281
0.0745584
0.0738988
0.0732151
0.0725245
0.0721406
0.0765552
0.0764913
0.0761618
0.0756721
0.0750806
0.0743598
0.073474
0.0724737
0.0713736
0.0706559
0.0766115
0.0765745
0.0762743
0.0757609
0.0750785
0.0741796
0.0729844
0.071494
0.0696509
0.0681148
0.0766547
0.076639
0.0764029
0.0759277
0.0751972
0.074113
0.0725224
0.0702731
0.0671245
0.0630059
0.0766888
0.0766799
0.0765443
0.0762074
0.0755216
0.0742708
0.0722185
0.0687141
0.0637525
0.0516249
0.0768681
0.0769094
0.0765965
0.0764726
0.0764307
0.0764291
0.0764681
0.0765895
0.0769002
0.0768533
0.0764288
0.0764096
0.076376
0.0763784
0.0763631
0.0763615
0.0763736
0.0763685
0.0763995
0.076415
0.0762759
0.0760864
0.076171
0.0762272
0.0762286
0.0762267
0.0762217
0.0761624
0.0760749
0.0762607
0.0762209
0.075977
0.0760746
0.0761029
0.0761002
0.0760979
0.0760963
0.0760644
0.075963
0.0762029
0.0761444
0.0759304
0.0760312
0.0760245
0.0760186
0.0760158
0.0760163
0.0760183
0.0759129
0.0761225
0.0760546
0.075881
0.0759851
0.0759622
0.0759623
0.0759588
0.0759516
0.0759686
0.0758588
0.0760276
0.0759769
0.0758327
0.0759314
0.0759002
0.0759079
0.0759036
0.0758868
0.0759104
0.0758045
0.0759422
0.0759163
0.0757948
0.0758822
0.0758437
0.0758549
0.0758494
0.0758264
0.0758553
0.0757587
0.0758712
0.0758677
0.0757654
0.075841
0.075797
0.0758085
0.0758015
0.0757746
0.0758064
0.075719
0.075809
0.0758267
0.0757401
0.0758048
0.075758
0.0757681
0.075759
0.0757287
0.07576
0.0756802
0.0757507
0.0757918
0.0757174
0.0757717
0.0757231
0.0757304
0.0757186
0.0756849
0.075713
0.0756396
0.0756946
0.0757642
0.0756981
0.0757417
0.0756912
0.0756942
0.0756789
0.0756416
0.0756649
0.0755967
0.0756398
0.0757444
0.0756832
0.0757155
0.0756627
0.0756597
0.0756397
0.0755982
0.0756154
0.0755509
0.0755843
0.0757328
0.0756734
0.0756939
0.0756378
0.075627
0.0756009
0.075554
0.0755634
0.075501
0.0755259
0.0757297
0.0756697
0.0756776
0.0756163
0.0755956
0.0755615
0.0755078
0.0755074
0.0754449
0.0754621
0.0757365
0.0756732
0.075667
0.0755982
0.0755652
0.0755206
0.0754578
0.0754456
0.0753806
0.0753901
0.0757547
0.0756855
0.0756629
0.0755835
0.075535
0.0754768
0.0754022
0.0753757
0.0753052
0.0753066
0.0757857
0.0757083
0.0756663
0.0755723
0.0755044
0.0754287
0.0753383
0.0752943
0.0752147
0.0752073
0.0758312
0.0757435
0.075678
0.0755644
0.0754724
0.0753743
0.0752631
0.0751972
0.0751041
0.0750864
0.0758921
0.0757929
0.0756988
0.0755598
0.0754379
0.0753109
0.0751723
0.0750785
0.0749659
0.0749357
0.0759687
0.0758579
0.0757293
0.0755581
0.0753992
0.0752352
0.0750604
0.0749303
0.0747902
0.0747439
0.0760597
0.0759392
0.0757699
0.0755588
0.0753546
0.0751434
0.0749204
0.0747419
0.0745625
0.0744944
0.0761617
0.0760362
0.0758209
0.0755616
0.0753023
0.0750309
0.0747433
0.0744984
0.0742618
0.074162
0.0762693
0.0761457
0.0758827
0.075567
0.0752416
0.0748935
0.0745184
0.0741795
0.0738562
0.0737075
0.0763756
0.0762621
0.0759556
0.0755776
0.0751742
0.0747288
0.0742343
0.0737576
0.0732966
0.073065
0.0764729
0.0763781
0.0760414
0.0756003
0.0751074
0.0745397
0.0738806
0.0731963
0.0725038
0.0721189
0.0765551
0.076486
0.0761433
0.0756493
0.0750609
0.0743435
0.0734582
0.0724559
0.0713513
0.0706307
0.0766207
0.0765793
0.0762654
0.0757488
0.0750725
0.0741793
0.0729852
0.0714912
0.0696391
0.0680968
0.0766731
0.076655
0.0764156
0.0759472
0.0752294
0.0741553
0.0725691
0.0703172
0.0671562
0.0630218
0.0767144
0.0767081
0.0765988
0.076292
0.0756293
0.074395
0.0723534
0.0688533
0.0638787
0.0517183
0.0768682
0.0769094
0.0765965
0.0764726
0.0764306
0.0764291
0.0764681
0.0765895
0.0769001
0.0768533
0.0764288
0.0764096
0.076376
0.0763784
0.0763631
0.0763615
0.0763736
0.0763685
0.0763995
0.076415
0.0762759
0.0760865
0.076171
0.0762271
0.0762286
0.0762267
0.0762217
0.0761624
0.0760748
0.0762607
0.0762209
0.075977
0.0760746
0.0761028
0.0761001
0.0760979
0.0760962
0.0760643
0.075963
0.0762028
0.0761444
0.0759304
0.0760312
0.0760245
0.0760185
0.0760158
0.0760162
0.0760183
0.0759129
0.0761225
0.0760548
0.0758809
0.075985
0.0759621
0.0759623
0.0759588
0.0759516
0.0759685
0.0758588
0.0760274
0.0759772
0.0758326
0.0759312
0.0759002
0.0759079
0.0759035
0.0758867
0.0759103
0.0758044
0.0759421
0.0759165
0.0757947
0.0758821
0.0758437
0.0758549
0.0758494
0.0758264
0.0758553
0.0757586
0.0758711
0.0758676
0.0757654
0.0758411
0.0757971
0.0758085
0.0758014
0.0757746
0.0758064
0.0757189
0.0758088
0.0758263
0.0757401
0.0758051
0.075758
0.075768
0.075759
0.0757287
0.07576
0.0756801
0.0757505
0.0757916
0.0757175
0.0757719
0.075723
0.0757304
0.0757186
0.0756849
0.0757131
0.0756396
0.0756944
0.0757641
0.0756982
0.0757417
0.0756912
0.0756942
0.0756789
0.0756415
0.0756648
0.0755967
0.0756398
0.0757445
0.0756832
0.0757155
0.0756627
0.0756597
0.0756397
0.0755981
0.0756152
0.0755509
0.0755845
0.0757329
0.0756734
0.0756939
0.0756377
0.075627
0.0756008
0.075554
0.0755632
0.0755009
0.0755261
0.0757299
0.0756697
0.0756775
0.0756163
0.0755957
0.0755615
0.0755078
0.0755073
0.0754449
0.0754623
0.0757367
0.0756733
0.075667
0.0755982
0.0755652
0.0755205
0.0754578
0.0754456
0.0753806
0.0753903
0.0757549
0.0756857
0.075663
0.0755835
0.075535
0.0754768
0.0754022
0.0753756
0.0753051
0.0753067
0.0757859
0.0757085
0.0756664
0.0755723
0.0755044
0.0754287
0.0753384
0.0752942
0.0752146
0.0752073
0.0758314
0.0757438
0.0756782
0.0755645
0.0754724
0.0753743
0.0752632
0.0751971
0.0751039
0.0750863
0.0758924
0.0757932
0.075699
0.0755599
0.0754379
0.0753108
0.0751724
0.0750784
0.0749656
0.0749356
0.0759691
0.0758583
0.0757294
0.0755582
0.0753992
0.0752352
0.0750605
0.0749302
0.0747899
0.0747437
0.0760601
0.0759397
0.07577
0.0755588
0.0753546
0.0751433
0.0749203
0.0747417
0.0745621
0.074494
0.0761622
0.0760366
0.0758211
0.0755616
0.0753022
0.0750307
0.0747431
0.0744981
0.0742612
0.0741615
0.0762698
0.0761461
0.0758828
0.0755669
0.0752414
0.0748932
0.074518
0.074179
0.0738554
0.0737067
0.076376
0.0762625
0.0759557
0.0755775
0.0751739
0.0747283
0.0742336
0.0737567
0.0732955
0.0730638
0.0764733
0.0763784
0.0760413
0.0755999
0.0751068
0.0745389
0.0738796
0.0731949
0.0725021
0.072117
0.0765553
0.0764862
0.0761431
0.0756487
0.0750601
0.0743423
0.0734566
0.0724539
0.0713486
0.0706278
0.0766208
0.0765794
0.076265
0.075748
0.0750713
0.0741777
0.072983
0.0714883
0.0696348
0.0680918
0.0766729
0.0766547
0.076415
0.0759461
0.0752279
0.0741534
0.0725665
0.0703133
0.0671497
0.0630128
0.0767138
0.0767073
0.0765979
0.0762909
0.075628
0.0743932
0.0723505
0.0688484
0.0638696
0.0517003
0.0769042
0.0769479
0.0766366
0.076513
0.0764711
0.0764696
0.0765085
0.0766295
0.0769387
0.0768894
0.0764405
0.0764231
0.0763896
0.076392
0.0763768
0.0763751
0.0763872
0.076382
0.076413
0.0764267
0.076272
0.0760837
0.0761678
0.0762238
0.0762253
0.0762234
0.0762183
0.0761592
0.076072
0.0762567
0.0762185
0.0759765
0.0760745
0.076103
0.0761006
0.0760983
0.0760964
0.0760642
0.0759624
0.0762004
0.076144
0.0759315
0.0760331
0.0760272
0.0760217
0.0760189
0.0760189
0.0760202
0.075914
0.0761221
0.0760515
0.0758766
0.0759803
0.075958
0.0759585
0.075955
0.0759475
0.0759639
0.0758546
0.0760239
0.0759702
0.0758219
0.0759186
0.0758878
0.0758955
0.0758912
0.0758744
0.0758978
0.0757938
0.0759349
0.0759073
0.0757806
0.0758653
0.0758268
0.0758377
0.0758321
0.0758095
0.0758383
0.0757444
0.0758619
0.075857
0.0757498
0.0758226
0.0757784
0.0757892
0.0757821
0.0757559
0.0757877
0.0757031
0.0757985
0.0758151
0.0757238
0.0757857
0.0757385
0.0757477
0.0757386
0.0757092
0.0757405
0.0756636
0.0757392
0.0757803
0.0757008
0.075752
0.0757033
0.0757097
0.0756979
0.0756651
0.0756933
0.075623
0.0756824
0.075753
0.0756818
0.0757221
0.0756718
0.0756739
0.0756585
0.0756221
0.0756453
0.0755806
0.0756273
0.0757336
0.0756677
0.0756969
0.0756443
0.0756403
0.0756201
0.0755796
0.0755964
0.0755356
0.0755722
0.0757224
0.075659
0.0756766
0.0756207
0.0756088
0.0755824
0.0755367
0.0755455
0.0754866
0.0755144
0.0757202
0.0756567
0.0756619
0.0756008
0.0755789
0.0755445
0.0754919
0.0754909
0.0754316
0.0754513
0.0757281
0.075662
0.0756531
0.0755845
0.0755501
0.0755051
0.0754435
0.0754307
0.0753684
0.0753799
0.0757476
0.0756763
0.0756512
0.0755718
0.0755217
0.0754631
0.0753895
0.0753624
0.0752941
0.0752972
0.0757804
0.0757014
0.0756569
0.0755627
0.0754932
0.075417
0.0753276
0.0752828
0.075205
0.0751989
0.0758281
0.0757392
0.0756713
0.0755574
0.0754636
0.0753648
0.0752544
0.0751876
0.0750959
0.0750792
0.0758918
0.0757917
0.075695
0.0755556
0.0754318
0.075304
0.075166
0.0750712
0.0749595
0.07493
0.0759717
0.0758603
0.075729
0.0755571
0.0753963
0.0752313
0.0750568
0.0749256
0.074786
0.0747402
0.0760661
0.0759457
0.0757737
0.0755616
0.0753555
0.075143
0.07492
0.0747403
0.0745611
0.0744932
0.0761713
0.0760466
0.0758293
0.0755689
0.0753076
0.0750347
0.0747468
0.0745007
0.0742639
0.0741643
0.0762811
0.0761594
0.0758959
0.0755793
0.0752519
0.074902
0.0745265
0.0741861
0.0738627
0.0737142
0.0763873
0.0762771
0.075973
0.075595
0.0751895
0.074742
0.0742467
0.0737688
0.073308
0.0730767
0.076481
0.0763908
0.076061
0.0756213
0.075126
0.0745555
0.0738954
0.0732105
0.072519
0.0721352
0.0765559
0.0764918
0.0761608
0.0756697
0.0750774
0.0743557
0.0734689
0.0724668
0.0713651
0.0706472
0.0766118
0.0765746
0.076273
0.0757577
0.0750741
0.0741739
0.0729771
0.071484
0.0696371
0.0680999
0.0766546
0.0766387
0.0764013
0.075924
0.0751919
0.0741059
0.0725129
0.0702595
0.0671033
0.062977
0.0766885
0.076679
0.0765425
0.0762038
0.0755162
0.0742633
0.0722076
0.0686972
0.0637221
0.0515666
0.0770232
0.0770646
0.076758
0.0766354
0.0765939
0.0765923
0.0766309
0.076751
0.0770554
0.0770086
0.0764362
0.0764147
0.0763863
0.0763882
0.0763731
0.0763714
0.0763834
0.0763787
0.0764046
0.0764224
0.0762214
0.0760269
0.0761125
0.0761662
0.0761676
0.0761657
0.0761607
0.0761039
0.0760152
0.0762061
0.0761881
0.0759469
0.0760462
0.0760726
0.0760705
0.0760682
0.0760659
0.0760357
0.0759327
0.07617
0.0761382
0.0759331
0.0760371
0.0760307
0.0760259
0.0760231
0.0760223
0.0760239
0.0759154
0.0761162
0.0760582
0.0758932
0.0759989
0.0759772
0.0759784
0.0759748
0.0759666
0.0759823
0.0758709
0.0760307
0.0759838
0.0758461
0.0759443
0.0759149
0.0759229
0.0759183
0.0759013
0.0759233
0.075818
0.0759488
0.075926
0.0758103
0.0758966
0.0758603
0.0758711
0.0758655
0.0758428
0.0758695
0.0757739
0.0758815
0.0758791
0.075783
0.0758576
0.0758161
0.0758266
0.0758197
0.0757934
0.0758224
0.0757356
0.0758219
0.0758384
0.0757579
0.0758216
0.0757773
0.0757862
0.0757773
0.0757479
0.0757762
0.075697
0.0757642
0.0758034
0.0757341
0.0757871
0.0757411
0.0757475
0.0757357
0.0757029
0.075728
0.0756553
0.0757076
0.0757753
0.0757135
0.0757556
0.0757078
0.0757099
0.0756944
0.0756579
0.0756782
0.0756109
0.0756519
0.0757546
0.0756973
0.0757282
0.0756779
0.075674
0.0756538
0.0756132
0.0756271
0.0755641
0.0755956
0.0757421
0.0756863
0.0757056
0.0756517
0.0756401
0.0756137
0.0755678
0.0755739
0.0755132
0.0755363
0.0757386
0.0756818
0.0756886
0.0756292
0.0756077
0.0755731
0.0755203
0.0755169
0.0754562
0.0754718
0.0757455
0.0756851
0.0756781
0.0756105
0.0755764
0.0755312
0.0754693
0.0754544
0.0753911
0.0753993
0.0757643
0.075698
0.0756749
0.0755959
0.0755461
0.075487
0.0754131
0.0753841
0.0753153
0.0753158
0.0757972
0.0757224
0.0756801
0.0755856
0.0755161
0.0754393
0.0753495
0.0753031
0.0752251
0.075217
0.0758459
0.0757606
0.0756947
0.0755798
0.0754859
0.0753862
0.0752753
0.0752071
0.0751154
0.0750974
0.0759119
0.0758146
0.07572
0.0755788
0.0754545
0.0753254
0.0751867
0.0750907
0.0749795
0.0749493
0.0759953
0.0758864
0.0757571
0.0755827
0.0754208
0.0752542
0.0750787
0.0749464
0.0748076
0.0747617
0.0760947
0.0759766
0.0758066
0.0755915
0.0753835
0.075169
0.0749448
0.074764
0.0745859
0.0745186
0.0762057
0.0760838
0.0758689
0.0756052
0.0753414
0.075066
0.0747766
0.0745294
0.0742942
0.0741959
0.0763204
0.0762031
0.0759437
0.0756247
0.075294
0.0749411
0.0745636
0.0742224
0.0739015
0.0737553
0.0764281
0.0763256
0.07603
0.0756517
0.0752421
0.0747906
0.0742931
0.073815
0.0733584
0.0731314
0.076517
0.076439
0.0761261
0.0756899
0.075189
0.074613
0.0739504
0.0732668
0.0725835
0.0722076
0.0765786
0.0765308
0.0762286
0.0757443
0.0751432
0.0744128
0.0735232
0.0725256
0.0714401
0.0707377
0.0766122
0.0765933
0.0763285
0.0758167
0.0751165
0.0742026
0.0730026
0.0715185
0.0697033
0.0681963
0.0766214
0.0766193
0.0764019
0.0759081
0.075146
0.0740398
0.0724424
0.0702006
0.0670936
0.0630153
0.0766242
0.0766013
0.07641
0.0760018
0.0752697
0.0739993
0.0719436
0.0684425
0.063523
0.0513844
0.0773576
0.0773926
0.0770638
0.0769458
0.0769058
0.0769043
0.0769413
0.0770567
0.0773835
0.0773435
0.0764966
0.0764477
0.0764134
0.0764204
0.0764053
0.0764037
0.0764156
0.0764058
0.0764375
0.0764827
0.0761567
0.0759397
0.0760253
0.0760804
0.0760814
0.0760795
0.0760749
0.0760166
0.0759281
0.076141
0.0761009
0.0758437
0.075945
0.0759726
0.0759709
0.0759686
0.0759659
0.0759344
0.0758294
0.0760824
0.0760494
0.075827
0.0759308
0.0759267
0.0759226
0.0759198
0.0759183
0.0759176
0.0758091
0.076027
0.0759726
0.0757883
0.0758902
0.0758705
0.0758712
0.0758676
0.07586
0.0758736
0.0757659
0.0759445
0.0759058
0.0757499
0.0758423
0.0758143
0.0758203
0.0758157
0.0758007
0.0758214
0.0757217
0.0758696
0.0758577
0.0757257
0.0758056
0.0757707
0.0757788
0.0757732
0.0757532
0.0757783
0.0756894
0.0758116
0.0758195
0.0757088
0.0757769
0.0757371
0.0757448
0.0757377
0.0757144
0.0757413
0.0756621
0.0757607
0.0757861
0.0756928
0.0757501
0.0757074
0.0757135
0.0757044
0.075678
0.0757041
0.0756327
0.0757099
0.0757577
0.0756772
0.0757241
0.0756796
0.0756831
0.075671
0.0756414
0.0756641
0.0755987
0.0756599
0.0757352
0.075664
0.0757008
0.0756542
0.0756534
0.0756377
0.0756043
0.0756221
0.0755616
0.0756103
0.0757196
0.0756543
0.075681
0.0756317
0.075625
0.0756045
0.0755669
0.0755787
0.0755213
0.0755582
0.0757116
0.0756493
0.0756651
0.0756121
0.0755977
0.0755709
0.0755279
0.0755323
0.0754757
0.0755026
0.075712
0.0756503
0.0756542
0.0755956
0.0755714
0.0755364
0.0754861
0.0754812
0.0754232
0.0754419
0.0757227
0.0756588
0.0756494
0.0755824
0.0755458
0.0755
0.0754403
0.075424
0.0753621
0.0753733
0.0757458
0.075677
0.0756517
0.0755731
0.0755208
0.075461
0.0753888
0.0753587
0.0752901
0.0752934
0.0757833
0.0757071
0.0756624
0.0755681
0.075496
0.0754183
0.0753297
0.0752822
0.0752036
0.0751982
0.0758374
0.0757519
0.0756831
0.0755681
0.0754712
0.0753703
0.0752601
0.0751908
0.0750979
0.0750825
0.07591
0.0758139
0.0757154
0.0755736
0.0754459
0.0753152
0.0751767
0.0750791
0.0749665
0.0749388
0.0760017
0.0758956
0.0757609
0.0755853
0.0754194
0.0752507
0.0750748
0.0749404
0.0748002
0.0747568
0.0761115
0.075998
0.0758211
0.0756038
0.0753911
0.0751739
0.0749487
0.0747651
0.0745859
0.0745213
0.0762347
0.0761198
0.0758971
0.0756303
0.0753609
0.0750819
0.0747909
0.0745402
0.0743044
0.0742094
0.0763616
0.0762552
0.0759896
0.0756669
0.0753297
0.0749719
0.0745924
0.0742471
0.0739267
0.0737848
0.0764769
0.0763921
0.0760988
0.075718
0.0753003
0.0748421
0.074342
0.0738596
0.0734062
0.0731857
0.0765639
0.0765125
0.076224
0.0757904
0.0752784
0.074692
0.0740262
0.0733399
0.0726658
0.0723017
0.0766146
0.0765989
0.0763589
0.0758893
0.0752715
0.0745246
0.0736308
0.0726353
0.0715742
0.0708962
0.0766358
0.0766568
0.0764901
0.0760046
0.0752778
0.0743366
0.0731311
0.0716601
0.0699077
0.0684598
0.0766147
0.0766528
0.0765324
0.0760625
0.0752657
0.0741215
0.072518
0.0703052
0.0673444
0.0634231
0.0765716
0.0765415
0.0763373
0.0758697
0.075064
0.0737486
0.071695
0.0682516
0.0636031
0.0519096
0.0770758
0.0773549
0.0770185
0.076898
0.0768604
0.0768588
0.0768934
0.0770113
0.0773449
0.077061
0.0765101
0.0764947
0.0764327
0.0764355
0.0764222
0.0764205
0.0764307
0.076425
0.0764841
0.0764958
0.0763913
0.0761548
0.076218
0.0762669
0.0762689
0.076267
0.0762613
0.0762091
0.0761426
0.0763754
0.0763626
0.0760988
0.0761843
0.0762127
0.0762128
0.0762104
0.0762059
0.0761736
0.0760844
0.0763441
0.0762665
0.0760471
0.0761337
0.0761372
0.0761347
0.0761318
0.0761287
0.0761205
0.0760294
0.0762444
0.0761445
0.0759698
0.0760527
0.076043
0.0760424
0.076039
0.0760322
0.076036
0.0759475
0.0761172
0.0760433
0.0759021
0.0759768
0.0759589
0.0759608
0.0759566
0.0759452
0.0759552
0.0758733
0.0760088
0.0759682
0.0758527
0.075917
0.0758928
0.0758955
0.07589
0.0758749
0.0758892
0.0758161
0.0759241
0.0759083
0.0758129
0.0758673
0.0758383
0.0758409
0.0758333
0.0758153
0.0758315
0.0757663
0.0758518
0.0758578
0.0757774
0.0758229
0.0757904
0.0757916
0.0757818
0.0757607
0.0757764
0.0757169
0.0757847
0.075816
0.0757464
0.0757833
0.075748
0.0757463
0.075734
0.0757096
0.075723
0.0756684
0.0757218
0.0757832
0.0757206
0.0757492
0.0757111
0.0757055
0.0756897
0.0756615
0.075671
0.0756201
0.0756624
0.0757594
0.0757011
0.0757212
0.0756797
0.0756688
0.075648
0.0756151
0.0756194
0.0755696
0.0756033
0.0757448
0.0756883
0.0756995
0.0756529
0.0756349
0.0756076
0.0755688
0.0755663
0.075516
0.0755421
0.0757402
0.0756828
0.0756837
0.0756306
0.0756034
0.0755677
0.0755213
0.0755102
0.0754576
0.0754766
0.0757471
0.0756863
0.0756751
0.0756129
0.075574
0.0755274
0.0754711
0.0754493
0.0753922
0.0754043
0.0757677
0.0757013
0.075675
0.0756005
0.0755465
0.0754857
0.0754163
0.0753813
0.0753172
0.0753219
0.0758043
0.0757302
0.0756851
0.075594
0.0755206
0.0754415
0.0753551
0.0753034
0.0752292
0.0752257
0.0758592
0.0757759
0.0757068
0.0755941
0.0754962
0.0753936
0.075285
0.0752121
0.0751236
0.0751104
0.0759346
0.0758413
0.0757421
0.0756017
0.075473
0.0753403
0.0752028
0.0751026
0.0749943
0.0749692
0.0760313
0.0759294
0.075793
0.0756178
0.075451
0.07528
0.0751045
0.0749685
0.0748327
0.0747921
0.0761473
0.076041
0.0758615
0.0756439
0.0754302
0.0752107
0.0749852
0.0748011
0.0746269
0.0745652
0.0762759
0.0761732
0.0759488
0.0756815
0.0754115
0.0751305
0.0748389
0.0745888
0.0743593
0.0742673
0.0764039
0.0763156
0.0760553
0.075734
0.075397
0.0750381
0.0746582
0.0743152
0.0740035
0.0738652
0.0765126
0.0764491
0.0761791
0.0758069
0.075391
0.074933