/*--------------------------------*- C++ -*----------------------------------*\
| =========                 |                                                 |
| \\      /  F ield         | OpenFOAM: The Open Source CFD Toolbox           |
|  \\    /   O peration     | Version:  4.1                                   |
|   \\  /    A nd           | Web:      www.OpenFOAM.org                      |
|    \\/     M anipulation  |                                                 |
\*---------------------------------------------------------------------------*/
FoamFile
{
    version     2.0;
    format      ascii;
    class       surfaceScalarField;
    location    "1700";
    object      phi;
}
// * * * * * * * * * * * * * * * * * * * * * * * * * * * * * * * * * * * * * //

dimensions      [0 3 -1 0 0 0 0];

internalField   nonuniform List<scalar> 
33700
(
4.95731e-05
0.000900945
4.9495e-05
2.31158e-05
0.000971159
5.53112e-05
8.4218e-06
0.000957284
5.74217e-05
3.14229e-06
0.000948094
5.71971e-05
8.42107e-08
0.000945639
5.74303e-05
-2.98098e-06
0.000945646
5.74305e-05
-8.27811e-06
0.000948112
5.71978e-05
-2.2994e-05
0.000957311
5.74163e-05
-4.94755e-05
0.000971196
5.52967e-05
0.000900964
4.95683e-05
3.12812e-05
0.000838575
3.11198e-05
2.37463e-05
0.00093954
3.91896e-05
1.3395e-05
0.000926698
4.09729e-05
6.11741e-06
0.000915108
4.02983e-05
2.14004e-07
0.000910893
4.06852e-05
-5.70467e-06
0.000910916
4.06863e-05
-1.30115e-05
0.000915165
4.02922e-05
-2.33449e-05
0.000926754
4.09276e-05
-3.08536e-05
0.000939595
3.91443e-05
0.000838902
3.12269e-05
1.62719e-05
0.000806338
1.59977e-05
1.67351e-05
0.000915334
2.37786e-05
1.16774e-05
0.000907206
2.45848e-05
6.026e-06
0.000896729
2.40661e-05
3.76891e-07
0.00089201
2.45671e-05
-5.3014e-06
0.000892062
2.45696e-05
-1.10199e-05
0.000896862
2.406e-05
-1.60904e-05
0.000907337
2.45259e-05
-1.56977e-05
0.000915449
2.37912e-05
0.000807153
1.60734e-05
8.90386e-06
0.000788972
8.49349e-06
1.18641e-05
0.000898055
1.43521e-05
9.50154e-06
0.000895556
1.40458e-05
5.20153e-06
0.000886692
1.43697e-05
5.76864e-07
0.000881665
1.50043e-05
-4.09459e-06
0.000881759
1.50098e-05
-8.51321e-06
0.000886955
1.43608e-05
-1.09347e-05
0.000895845
1.39505e-05
-8.19046e-06
0.000898306
1.44361e-05
0.000790384
8.60159e-06
5.47604e-06
0.000778632
4.89209e-06
9.08345e-06
0.000885372
9.10633e-06
8.25154e-06
0.000888852
7.56775e-06
4.7318e-06
0.000881317
8.92813e-06
8.34544e-07
0.000875962
9.63467e-06
-3.12494e-06
0.00087611
9.64205e-06
-6.82181e-06
0.000881761
8.92368e-06
-7.80774e-06
0.00088939
7.47458e-06
-4.55507e-06
0.000885818
9.27061e-06
0.000780899
4.95475e-06
4.30314e-06
0.00077086
3.49927e-06
7.21308e-06
0.000875593
6.90261e-06
7.39609e-06
0.000884729
3.97584e-06
4.48963e-06
0.000878094
6.16625e-06
1.16751e-06
0.00087257
6.75105e-06
-2.23321e-06
0.000872789
6.7576e-06
-5.38852e-06
0.000878773
6.1773e-06
-5.52975e-06
0.000885613
3.95157e-06
-3.06886e-06
0.000876273
7.11951e-06
0.000774358
3.49907e-06
4.19074e-06
0.000763598
3.10597e-06
5.92647e-06
0.000867669
6.22723e-06
6.76629e-06
0.000881791
2.13938e-06
4.36095e-06
0.000875571
4.97182e-06
1.59777e-06
0.000870097
5.27963e-06
-1.27445e-06
0.000870415
5.28699e-06
-4.02531e-06
0.00087657
4.99147e-06
-3.7223e-06
0.000883165
2.18104e-06
-2.5327e-06
0.000868595
6.52616e-06
0.000768739
3.11439e-06
4.46405e-06
0.000756164
3.01254e-06
5.14789e-06
0.000860923
6.10942e-06
6.48136e-06
0.000879341
1.16577e-06
4.43946e-06
0.000873162
4.50262e-06
2.14857e-06
0.000867954
4.48509e-06
-2.9283e-07
0.000868407
4.49697e-06
-2.79493e-06
0.000874585
4.5301e-06
-2.23892e-06
0.000881406
1.24436e-06
-2.19403e-06
0.000862132
6.46022e-06
0.000763515
3.06204e-06
4.88302e-06
0.00074838
2.95632e-06
4.77575e-06
0.000854993
6.09404e-06
6.56768e-06
0.000877088
5.21807e-07
4.78921e-06
0.000870737
4.26546e-06
2.86009e-06
0.000865997
3.94748e-06
7.24666e-07
0.000866637
3.96349e-06
-1.68338e-06
0.000872722
4.32351e-06
-9.67464e-07
0.000880086
6.52784e-07
-1.79402e-06
0.000856444
6.56276e-06
0.000758683
3.07269e-06
5.39532e-06
0.0007402
2.85061e-06
4.72223e-06
0.000849758
5.9772e-06
6.98088e-06
0.000874896
3.04748e-09
5.42898e-06
0.0008683
4.06055e-06
3.78751e-06
0.00086422
3.4902e-06
1.87807e-06
0.000865113
3.50079e-06
-5.54545e-07
0.000871046
4.17035e-06
2.60702e-07
0.000879152
1.75101e-07
-1.26866e-06
0.000851386
6.64297e-06
0.000754365
3.0877e-06
6.0832e-06
0.000731462
2.73287e-06
5.05297e-06
0.00084507
5.79598e-06
7.77575e-06
0.000872667
-4.15091e-07
6.4071e-06
0.000865889
3.85897e-06
4.98699e-06
0.000862635
3.0845e-06
3.279e-06
0.000863835
3.06226e-06
7.19968e-07
0.000869637
4.038e-06
1.54532e-06
0.000878616
-2.2558e-07
-6.2618e-07
0.000847025
6.59487e-06
0.000750673
3.10882e-06
7.01857e-06
0.000721921
2.6106e-06
5.90841e-06
0.000840669
5.59633e-06
8.99543e-06
0.000870332
-6.66628e-07
7.80048e-06
0.000863504
3.66699e-06
6.56796e-06
0.000861223
2.73151e-06
4.96405e-06
0.000862843
2.68012e-06
2.24611e-06
0.000868534
3.8987e-06
3.0063e-06
0.00087848
-5.52302e-07
1.2925e-07
0.000843486
6.48562e-06
0.000747684
3.16647e-06
8.19066e-06
0.000711445
2.38072e-06
7.43755e-06
0.000836148
5.36601e-06
1.07344e-05
0.000867796
-6.69405e-07
9.72452e-06
0.000861074
3.53387e-06
8.65808e-06
0.000859911
2.47247e-06
7.0694e-06
0.000862149
2.37328e-06
4.14486e-06
0.000867745
3.79854e-06
4.75506e-06
0.00087875
-8.01802e-07
1.02473e-06
0.000841025
6.26739e-06
0.000745493
3.26695e-06
9.74544e-06
0.000699689
2.1132e-06
9.56418e-06
0.000831218
5.20816e-06
1.31288e-05
0.000864889
-5.60053e-07
1.23164e-05
0.000858548
3.43646e-06
1.14104e-05
0.000858637
2.27883e-06
9.79682e-06
0.00086174
2.12026e-06
6.54119e-06
0.00086737
3.72239e-06
6.80677e-06
0.000879552
-9.83274e-07
2.0919e-06
0.000839818
6.00515e-06
0.000744253
3.38842e-06
1.1896e-05
0.000685963
1.93866e-06
1.23607e-05
0.000825831
5.02544e-06
1.63242e-05
0.000861493
-4.65046e-07
1.57569e-05
0.000855889
3.32992e-06
1.50012e-05
0.000857365
2.13188e-06
1.33e-05
0.000861644
1.89895e-06
9.59693e-06
0.000867537
3.63357e-06
9.26545e-06
0.000881055
-1.0813e-06
3.43278e-06
0.000840008
5.73083e-06
0.000744269
3.47619e-06
1.47437e-05
0.000669486
1.84878e-06
1.6043e-05
0.000819803
4.8355e-06
2.05516e-05
0.000857453
-3.61829e-07
2.03153e-05
0.000853014
3.22055e-06
1.96735e-05
0.000856063
2.05364e-06
1.78127e-05
0.000861883
1.72946e-06
1.35278e-05
0.000868362
3.56207e-06
1.23361e-05
0.000883438
-1.09578e-06
5.11538e-06
0.000841805
5.51718e-06
0.000745872
3.57578e-06
1.84399e-05
0.000649298
1.87149e-06
2.0949e-05
0.000812711
4.69574e-06
2.61357e-05
0.000852547
-1.69744e-07
2.63114e-05
0.000849784
3.16645e-06
2.57527e-05
0.000854656
2.07906e-06
2.36362e-05
0.000862455
1.65628e-06
1.86002e-05
0.000869965
3.5395e-06
1.62088e-05
0.000886933
-1.00474e-06
7.27124e-06
0.000845503
5.33734e-06
0.000749441
3.76843e-06
2.317e-05
0.000624186
2.07176e-06
2.7485e-05
0.000803795
4.71718e-06
3.34871e-05
0.000846445
2.14441e-07
3.41419e-05
0.000846011
3.23481e-06
3.363e-05
0.000853019
2.26584e-06
3.11561e-05
0.000863319
1.72579e-06
2.51712e-05
0.000872449
3.61158e-06
2.12121e-05
0.000891776
-7.80016e-07
1.00618e-05
0.000851499
5.25611e-06
0.000755463
4.11038e-06
2.91456e-05
0.00059259
2.58822e-06
3.6135e-05
0.000791896
5.02907e-06
4.3111e-05
0.00083871
8.77372e-07
4.43281e-05
0.000841414
3.49996e-06
4.3843e-05
0.00085095
2.67493e-06
4.08819e-05
0.000864392
2.00752e-06
3.3689e-05
0.000875911
3.84573e-06
2.77358e-05
0.000898186
-3.49193e-07
1.36784e-05
0.000860316
5.34671e-06
0.000764531
4.68281e-06
3.65289e-05
0.00055261
3.59614e-06
4.74817e-05
0.00077527
5.79624e-06
5.56368e-05
0.000828748
1.92752e-06
5.75223e-05
0.00083559
4.06062e-06
5.70654e-05
0.000848142
3.38774e-06
5.34743e-05
0.000865523
2.58247e-06
4.4743e-05
0.000880435
4.32452e-06
3.62393e-05
0.000906405
3.95124e-07
1.84285e-05
0.000872548
5.68886e-06
0.000777467
5.56815e-06
4.53818e-05
0.00050202
5.35988e-06
6.21055e-05
0.000751407
7.26298e-06
7.18407e-05
0.00081562
3.5144e-06
7.4525e-05
0.000827977
5.05388e-06
7.41293e-05
0.000844147
4.51704e-06
6.97939e-05
0.000866412
3.57171e-06
5.91641e-05
0.000886032
5.15479e-06
4.7385e-05
0.00091675
1.54892e-06
2.47187e-05
0.000888916
6.41179e-06
0.000795364
6.89973e-06
5.54717e-05
0.000438582
8.12353e-06
8.04533e-05
0.000716834
9.71444e-06
9.26045e-05
0.000797741
5.84938e-06
9.63023e-05
0.000817734
6.67108e-06
9.60768e-05
0.000838275
6.22664e-06
9.09876e-05
0.000866495
5.13487e-06
7.80933e-05
0.000892552
6.49773e-06
6.21301e-05
0.000929575
3.25443e-06
3.31413e-05
0.000910342
7.67875e-06
0.000819716
8.86937e-06
6.6077e-05
0.000360674
1.19935e-05
0.000102543
0.000667072
1.34161e-05
0.000118708
0.000772429
9.26561e-06
0.000123956
0.000803455
9.15657e-06
0.000124226
0.000829409
8.72452e-06
0.000118572
0.000864762
7.51776e-06
0.000103146
0.000899511
8.59334e-06
8.19479e-05
0.00094517
5.72264e-06
4.46023e-05
0.000938068
9.73878e-06
0.000852648
1.17538e-05
7.56375e-05
0.000268436
1.67702e-05
0.000127174
0.000597234
1.84188e-05
0.000150492
0.000735137
1.40885e-05
0.000158694
0.000782483
1.28941e-05
0.000160204
0.00081571
1.23191e-05
0.000154572
0.000859508
1.10192e-05
0.000136663
0.000905788
1.17625e-05
0.000109074
0.000963609
9.27282e-06
6.05155e-05
0.000973789
1.29614e-05
0.000897297
1.59537e-05
8.13195e-05
0.000165825
2.14757e-05
0.00015101
0.000503431
2.42266e-05
0.000187058
0.00067861
2.05892e-05
0.000201589
0.000749607
1.84659e-05
0.00020603
0.000793928
1.7473e-05
0.00020169
0.000847938
1.60464e-05
0.000182012
0.000909161
1.64404e-05
0.000147043
0.000984338
1.43697e-05
8.35111e-05
0.0010196
1.78493e-05
0.000958849
2.20468e-05
7.8245e-05
6.43499e-05
2.34741e-05
0.000167317
0.000385146
2.93334e-05
0.000224844
0.000592231
2.89622e-05
0.000252889
0.000694834
2.68472e-05
0.000264227
0.000757754
2.49676e-05
0.000263752
0.000825416
2.3137e-05
0.000244261
0.000905628
2.31656e-05
0.000201657
0.00100548
2.1604e-05
0.000117828
0.0010784
2.51619e-05
0.00104587
3.09004e-05
5.68249e-05
-1.3644e-05
2.15275e-05
0.000165798
0.000244983
3.13452e-05
0.000256375
0.00046329
3.84804e-05
0.000309888
0.000602345
3.90975e-05
0.000336449
0.000695074
3.62549e-05
0.000345372
0.000783433
3.32077e-05
0.000330778
0.000887757
3.2622e-05
0.000282965
0.00102172
3.17057e-05
0.000174386
0.00115112
3.60133e-05
0.00117647
4.3892e-05
6.45494e-06
-4.99916e-05
3.03752e-05
0.000137042
7.55593e-05
3.90905e-05
0.000270065
0.000278544
5.18802e-05
0.000365671
0.000450874
5.60056e-05
0.00042365
0.000584691
5.2553e-05
0.000453435
0.000706307
4.7511e-05
0.00045315
0.000842616
4.55927e-05
0.000407
0.00102275
4.53033e-05
0.000270568
0.00123634
5.13715e-05
0.00138413
6.29839e-05
-2.73666e-06
-8.29604e-05
3.62127e-05
9.99867e-05
-7.96139e-05
5.28123e-05
0.000248715
5.69303e-05
7.31355e-05
0.000390061
0.000227486
8.22569e-05
0.000504907
0.000391899
7.81637e-05
0.000584968
0.000557114
6.93623e-05
0.000627057
0.000736649
6.41217e-05
0.000599489
0.000987139
6.33986e-05
0.00048021
0.00128251
7.33029e-05
0.00177398
9.05011e-05
7.88104e-05
1.3584e-05
-0.000174992
0.000178892
3.06811e-05
-0.000210066
0.000284547
6.41595e-05
-0.000112584
0.000406726
9.16769e-05
1.39558e-05
0.000555035
0.000101466
0.000142457
0.000708266
9.71858e-05
0.000307038
0.000850536
8.86675e-05
0.000506052
0.000906779
8.52989e-05
0.000845902
0.000899693
9.40953e-05
0.00119578
0.000127247
0.00254651
5.53766e-05
0.000971087
2.30393e-05
2.07135e-05
0.00106933
2.06577e-05
6.57527e-06
0.00105019
2.13839e-05
2.33388e-06
0.00103989
2.15677e-05
6.25193e-08
0.00103803
2.16912e-05
-2.21524e-06
0.00103803
2.16907e-05
-6.47644e-06
0.00103991
2.1566e-05
-2.06923e-05
0.00105027
2.13762e-05
-5.56199e-05
0.00106956
2.06717e-05
0.00097085
2.31048e-05
3.93319e-05
0.000939353
2.3553e-05
2.25797e-05
0.00110292
2.24063e-05
1.28681e-05
0.00107812
2.28123e-05
5.84064e-06
0.0010642
2.30768e-05
1.94092e-07
0.00106115
2.3268e-05
-5.47033e-06
0.00106118
2.32668e-05
-1.25487e-05
0.00106428
2.30622e-05
-2.22971e-05
0.00107823
2.27716e-05
-3.88772e-05
0.00110292
2.24186e-05
0.000939579
2.36411e-05
2.40271e-05
0.000914957
1.64091e-05
1.72011e-05
0.00111669
1.68961e-05
1.14292e-05
0.00109229
1.6259e-05
5.70759e-06
0.00107784
1.62122e-05
3.82586e-07
0.00107473
1.63845e-05
-4.96977e-06
0.00107479
1.63848e-05
-1.07775e-05
0.00107801
1.61984e-05
-1.66768e-05
0.00109249
1.623e-05
-2.34991e-05
0.00111663
1.69548e-05
0.000915709
1.64696e-05
1.47235e-05
0.000897397
1.13801e-05
1.45573e-05
0.00111716
1.41088e-05
9.50673e-06
0.0010986
1.28583e-05
4.70212e-06
0.0010845
1.25925e-05
5.87662e-07
0.0010811
1.28185e-05
-3.56263e-06
0.0010812
1.28151e-05
-8.48103e-06
0.00108478
1.25778e-05
-1.37541e-05
0.00109896
1.28195e-05
-1.40634e-05
0.00111725
1.41864e-05
0.000898867
1.14106e-05
9.63234e-06
0.000884312
8.40083e-06
1.33078e-05
0.00110998
1.26809e-05
8.58929e-06
0.00109984
1.11109e-05
4.28601e-06
0.00108685
1.09452e-05
8.35057e-07
0.001083
1.12598e-05
-2.66641e-06
0.00108316
1.12532e-05
-7.11694e-06
0.0010873
1.09308e-05
-1.21243e-05
0.00110043
1.10749e-05
-8.6156e-06
0.00111029
1.2776e-05
0.000886858
8.3809e-06
7.62313e-06
0.000873966
6.28184e-06
1.22723e-05
0.00110088
1.14223e-05
7.8675e-06
0.00109881
9.48259e-06
4.18583e-06
0.00108721
9.55496e-06
1.13504e-06
0.00108301
9.86493e-06
-1.98446e-06
0.00108325
9.8622e-06
-5.8608e-06
0.00108788
9.54044e-06
-1.0555e-05
0.00109969
9.45228e-06
-6.15893e-06
0.0011016
1.14754e-05
0.000877973
6.26155e-06
7.19594e-06
0.000865264
4.67381e-06
1.15984e-05
0.00109231
1.04635e-05
7.29559e-06
0.00109726
8.06139e-06
4.2098e-06
0.00108695
8.39154e-06
1.51042e-06
0.00108249
8.56723e-06
-1.27322e-06
0.00108282
8.57004e-06
-4.61681e-06
0.0010879
8.38045e-06
-9.26707e-06
0.00109854
8.04143e-06
-5.31738e-06
0.00109376
1.0476e-05
0.0008711
4.70672e-06
7.39796e-06
0.00085747
3.46989e-06
1.13273e-05
0.00108473
9.82222e-06
7.08546e-06
0.00109576
6.96614e-06
4.42986e-06
0.00108657
7.59854e-06
1.98938e-06
0.00108192
7.55896e-06
-5.6313e-07
0.00108237
7.56086e-06
-3.56582e-06
0.0010879
7.58971e-06
-8.26574e-06
0.0010976
6.95353e-06
-5.0167e-06
0.00108723
9.80844e-06
0.000865609
3.57429e-06
7.79897e-06
0.000850144
2.54543e-06
1.13699e-05
0.00107794
9.37703e-06
7.26491e-06
0.00109434
6.11648e-06
4.89686e-06
0.00108618
7.09314e-06
2.61198e-06
0.00108142
6.8027e-06
1.78187e-07
0.00108203
6.79978e-06
-2.6382e-06
0.00108802
7.091e-06
-7.32622e-06
0.00109692
6.07928e-06
-4.83166e-06
0.00108207
9.28689e-06
0.000861119
2.77085e-06
8.22595e-06
0.000843064
1.76832e-06
1.16775e-05
0.00107148
9.04334e-06
7.79874e-06
0.00109287
5.41438e-06
5.62108e-06
0.00108575
6.73718e-06
3.42451e-06
0.00108099
6.18683e-06
1.03492e-06
0.00108182
6.17433e-06
-1.6885e-06
0.00108823
6.74717e-06
-6.3616e-06
0.00109651
5.32884e-06
-4.55367e-06
0.00107811
8.85504e-06
0.000857533
2.16199e-06
8.75539e-06
0.000835969
1.13796e-06
1.22541e-05
0.00106506
8.77659e-06
8.6574e-06
0.00109127
4.84261e-06
6.6109e-06
0.0010852
6.52246e-06
4.48747e-06
0.00108055
5.71567e-06
2.0877e-06
0.0010817
5.649e-06
-6.21992e-07
0.00108849
6.55328e-06
-5.29052e-06
0.00109628
4.73337e-06
-4.06318e-06
0.00107505
8.48664e-06
0.000854945
1.67722e-06
9.48629e-06
0.000828444
7.19111e-07
1.30591e-05
0.00105868
8.47549e-06
9.85253e-06
0.00108949
4.38984e-06
7.91616e-06
0.00108452
6.3537e-06
5.86592e-06
0.0010801
5.30169e-06
3.44801e-06
0.00108166
5.20428e-06
6.64076e-07
0.00108888
6.35435e-06
-4.04052e-06
0.00109634
4.15308e-06
-3.34994e-06
0.00107279
8.11992e-06
0.00085346
1.34709e-06
1.04643e-05
0.000819864
5.71288e-07
1.38613e-05
0.00105286
7.85796e-06
1.14055e-05
0.00108743
3.9195e-06
9.61939e-06
0.00108376
6.15559e-06
7.65155e-06
0.00107971
4.90606e-06
5.20458e-06
0.00108177
4.78992e-06
2.24568e-06
0.0010896
6.11305e-06
-2.59664e-06
0.00109684
3.61174e-06
-2.42693e-06
0.00107109
7.87235e-06
0.000853335
1.01375e-06
1.18461e-05
0.000809693
5.18476e-07
1.51012e-05
0.00104764
7.24474e-06
1.34357e-05
0.00108512
3.49414e-06
1.18618e-05
0.00108285
5.99978e-06
9.97369e-06
0.00107937
4.59006e-06
7.45262e-06
0.00108203
4.45154e-06
4.24234e-06
0.00109062
5.98728e-06
-8.68989e-07
0.00109781
3.22769e-06
-1.27e-06
0.00106989
7.67616e-06
0.000854812
6.93088e-07
1.36217e-05
0.000797625
4.71887e-07
1.71856e-05
0.00104228
6.90869e-06
1.62095e-05
0.00108247
3.24754e-06
1.48316e-05
0.00108172
5.92156e-06
1.29969e-05
0.00107905
4.36561e-06
1.03533e-05
0.00108248
4.17894e-06
6.80842e-06
0.00109198
5.8954e-06
1.36895e-06
0.00109935
2.89355e-06
1.2006e-07
0.00106954
7.4046e-06
0.000857905
5.57056e-07
1.58983e-05
0.000783224
4.42794e-07
2.01648e-05
0.00103619
6.7353e-06
1.9906e-05
0.00107931
3.13177e-06
1.87308e-05
0.00108031
5.89077e-06
1.694e-05
0.00107873
4.24769e-06
1.41054e-05
0.00108314
3.98135e-06
1.01056e-05
0.00109378
5.83951e-06
4.19712e-06
0.00110161
2.62895e-06
1.74275e-06
0.00107045
7.13497e-06
0.00086269
5.90229e-07
1.8849e-05
0.00076583
5.10689e-07
2.41949e-05
0.00102894
6.68851e-06
2.47609e-05
0.00107551
3.15575e-06
2.38259e-05
0.00107857
5.93041e-06
2.20603e-05
0.00107841
4.25035e-06
1.89642e-05
0.00108409
3.88368e-06
1.43629e-05
0.00109615
5.8494e-06
7.79295e-06
0.00110477
2.48649e-06
3.77807e-06
0.00107301
6.87867e-06
0.000869511
7.83799e-07
2.26859e-05
0.000744564
7.50517e-07
2.95718e-05
0.00102006
6.79697e-06
3.1087e-05
0.0010709
3.39161e-06
3.04615e-05
0.00107642
6.09985e-06
2.87072e-05
0.00107811
4.40961e-06
2.52574e-05
0.00108547
3.89056e-06
1.98736e-05
0.00109931
5.91347e-06
1.23494e-05
0.00110912
2.47042e-06
6.3441e-06
0.00107765
6.70674e-06
0.000878922
1.10355e-06
2.76155e-05
0.000718352
1.28696e-06
3.66896e-05
0.00100893
7.16272e-06
3.93041e-05
0.00106535
3.89425e-06
3.90669e-05
0.0010738
6.44038e-06
3.73114e-05
0.00107787
4.76212e-06
3.34044e-05
0.00108741
4.06025e-06
2.70087e-05
0.00110355
6.08524e-06
1.81091e-05
0.00111514
2.62188e-06
9.62486e-06
0.00108485
6.71326e-06
0.0008917
1.59244e-06
3.38036e-05
0.000685952
2.29826e-06
4.5987e-05
0.000994724
7.90913e-06
4.99399e-05
0.00105865
4.76919e-06
5.01862e-05
0.00107067
7.0402e-06
4.84306e-05
0.00107772
5.38614e-06
4.39646e-05
0.00109007
4.47548e-06
3.63029e-05
0.00110919
6.44298e-06
2.55469e-05
0.00112339
2.98319e-06
1.38537e-05
0.00109542
6.89261e-06
0.000908825
2.36073e-06
4.13925e-05
0.000646014
4.01452e-06
5.80524e-05
0.000976112
9.30298e-06
6.36571e-05
0.00105046
6.18257e-06
6.4504e-05
0.00106692
8.04443e-06
6.2785e-05
0.00107763
6.41383e-06
5.76793e-05
0.00109359
5.25308e-06
4.84576e-05
0.00111657
7.08207e-06
3.52399e-05
0.00113459
3.65334e-06
1.9356e-05
0.00111046
7.34817e-06
0.000931618
3.52922e-06
5.03948e-05
0.000597057
6.8008e-06
7.33558e-05
0.000951315
1.16381e-05
8.1184e-05
0.00104027
8.30368e-06
8.28508e-05
0.00106239
9.62825e-06
8.13019e-05
0.00107748
8.01877e-06
7.55387e-05
0.00109803
6.54686e-06
6.44526e-05
0.00112609
8.15689e-06
4.80381e-05
0.00114958
4.7663e-06
2.66402e-05
0.00113143
8.19654e-06
0.000961928
5.26686e-06
6.05723e-05
0.000537531
1.1067e-05
9.21712e-05
0.000917972
1.52477e-05
0.000103369
0.00102692
1.15079e-05
0.000106256
0.00105668
1.20653e-05
0.000105159
0.00107698
1.04205e-05
9.88901e-05
0.00110332
8.59023e-06
8.57149e-05
0.00113806
9.88114e-06
6.51787e-05
0.00116939
6.53119e-06
3.64689e-05
0.00116028
9.68743e-06
0.00100244
7.78078e-06
7.12323e-05
0.000466157
1.70383e-05
0.000114387
0.000872754
2.05688e-05
0.000130961
0.0010083
1.62112e-05
0.000135932
0.00104893
1.5755e-05
0.000135885
0.00107547
1.39606e-05
0.000129577
0.00110904
1.16921e-05
0.000114282
0.00115267
1.2538e-05
8.85625e-05
0.00119523
9.23514e-06
5.01031e-05
0.00119961
1.21826e-05
0.00105715
1.1413e-05
8.08971e-05
0.000382641
2.42287e-05
0.000138865
0.00081134
2.77588e-05
0.000164321
0.000980592
2.2923e-05
0.000173291
0.00103722
2.12973e-05
0.000175473
0.0010717
1.9143e-05
0.000170176
0.00111416
1.63157e-05
0.000153252
0.00116957
1.654e-05
0.000121434
0.00122822
1.32747e-05
6.98492e-05
0.00125308
1.60467e-05
0.00113242
1.66863e-05
8.68695e-05
0.000288417
3.09742e-05
0.000162598
0.000728732
3.62991e-05
0.000202803
0.000937222
3.22033e-05
0.000219838
0.00101754
2.95637e-05
0.000226589
0.00106334
2.66546e-05
0.000224376
0.00111654
2.30403e-05
0.000207403
0.00118737
2.24165e-05
0.00016919
0.00126893
1.91741e-05
9.94848e-05
0.00132616
2.18578e-05
0.00123854
2.43099e-05
8.52149e-05
0.000190599
3.43016e-05
0.0001801
0.000621524
4.37531e-05
0.000243482
0.000868483
4.39097e-05
0.000276227
0.000982348
4.16105e-05
0.000292378
0.00104597
3.75336e-05
0.000297204
0.00111245
3.25258e-05
0.000283993
0.00120257
3.06692e-05
0.000241265
0.00131596
2.7443e-05
0.000149156
0.00142393
3.03842e-05
0.00139646
3.51559e-05
6.84431e-05
0.000117121
3.56286e-05
0.000184737
0.000494182
5.02368e-05
0.00028142
0.000765893
5.78565e-05
0.000341872
0.000920277
5.76846e-05
0.000376461
0.00101192
5.20632e-05
0.000395458
0.00109627
4.47415e-05
0.00039395
0.0012087
4.10058e-05
0.000353393
0.00136397
3.78656e-05
0.000234815
0.00155187
4.20452e-05
0.001644
5.02928e-05
4.56652e-05
7.77783e-05
3.01778e-05
0.000171496
0.000364887
5.63931e-05
0.000302773
0.000634934
7.29016e-05
0.000406332
0.000822402
7.66458e-05
0.00047838
0.000948564
6.95424e-05
0.000526557
0.00105888
5.86404e-05
0.000553743
0.00119385
5.18428e-05
0.000527459
0.00140525
4.84501e-05
0.000424732
0.00167153
5.64439e-05
0.00208913
7.01262e-05
6.50309e-05
-5.5678e-06
3.23314e-05
0.000176577
4.09658e-05
0.000243232
0.000315991
6.69604e-05
0.00049283
0.000454173
7.59568e-05
0.00070004
0.000578384
7.07943e-05
0.000855125
0.000684324
5.89802e-05
0.000991243
0.00078375
5.00856e-05
0.00113311
0.00081558
4.68575e-05
0.00141197
0.000807878
6.17711e-05
0.00171166
9.06129e-05
0.00293372
5.74845e-05
0.000957224
8.33847e-06
2.14343e-05
0.00105021
6.51487e-06
6.48677e-06
0.00102991
6.43257e-06
2.19411e-06
0.00101944
6.43578e-06
5.53697e-08
0.0010174
6.44684e-06
-2.08995e-06
0.00101741
6.44611e-06
-6.4042e-06
0.00101946
6.4338e-06
-2.14584e-05
0.00103002
6.42973e-06
-5.7855e-05
0.00105055
6.52703e-06
0.000956894
8.3624e-06
4.11134e-05
0.000926519
1.31783e-05
2.2979e-05
0.00107814
1.26719e-05
1.25721e-05
0.00105082
1.2385e-05
5.77715e-06
0.00103688
1.25113e-05
1.82478e-07
0.00103377
1.2564e-05
-5.43483e-06
0.0010338
1.25615e-05
-1.22996e-05
0.00103696
1.25026e-05
-2.27363e-05
0.00105091
1.23785e-05
-4.05145e-05
0.00107809
1.27097e-05
0.000926823
1.32184e-05
2.4827e-05
0.000906831
1.13132e-05
1.65594e-05
0.00109228
1.10836e-05
1.08781e-05
0.00106229
1.05423e-05
5.60258e-06
0.00104784
1.05944e-05
3.79948e-07
0.00104481
1.0647e-05
-4.87535e-06
0.00104487
1.06458e-05
-1.0252e-05
0.00104802
1.05879e-05
-1.60473e-05
0.00106246
1.05454e-05
-2.42417e-05
0.00109217
1.11322e-05
0.000907737
1.13401e-05
1.43984e-05
0.000894906
8.95662e-06
1.33038e-05
0.00109856
8.99252e-06
8.95326e-06
0.00107112
8.45188e-06
4.53939e-06
0.00105655
8.3724e-06
5.88558e-07
0.00105321
8.4399e-06
-3.4061e-06
0.00105332
8.4376e-06
-7.94967e-06
0.00105684
8.36586e-06
-1.24596e-05
0.0010714
8.45244e-06
-1.36461e-05
0.00109857
9.03546e-06
0.000896552
8.98114e-06
8.06247e-06
0.000887827
7.47385e-06
1.17345e-05
0.00109977
7.86946e-06
8.19026e-06
0.00107836
7.4834e-06
4.13799e-06
0.0010642
7.42096e-06
8.41803e-07
0.00106027
7.56575e-06
-2.51177e-06
0.00106043
7.56221e-06
-6.7305e-06
0.00106465
7.4165e-06
-1.04702e-05
0.0010788
7.48083e-06
-6.94489e-06
0.00109999
7.89455e-06
0.000890519
7.50459e-06
4.65267e-06
0.00088319
6.32555e-06
1.03176e-05
0.00109871
6.88664e-06
7.48948e-06
0.00108422
6.52379e-06
4.03707e-06
0.00107071
6.56829e-06
1.14692e-06
0.00106631
6.7882e-06
-1.81706e-06
0.00106654
6.78621e-06
-5.48236e-06
0.00107135
6.56481e-06
-8.55022e-06
0.00108488
6.51277e-06
-3.1777e-06
0.00109927
6.8845e-06
0.000887263
6.37828e-06
3.03971e-06
0.000879566
5.32051e-06
9.16022e-06
0.00109715
5.9725e-06
6.73656e-06
0.00108933
5.43867e-06
3.99742e-06
0.00107631
5.59533e-06
1.52142e-06
0.00107159
5.82642e-06
-1.04657e-06
0.00107192
5.82726e-06
-4.06922e-06
0.00107723
5.59333e-06
-6.83815e-06
0.00109033
5.42036e-06
-1.18538e-06
0.00109822
5.93527e-06
0.000885412
5.41412e-06
2.34602e-06
0.000876212
4.54053e-06
8.41156e-06
0.00109565
5.31492e-06
6.2329e-06
0.00109403
4.50977e-06
4.12862e-06
0.00108128
4.80067e-06
1.99276e-06
0.00107637
4.98486e-06
-2.58849e-07
0.00107681
4.98488e-06
-2.75142e-06
0.00108257
4.80351e-06
-5.41866e-06
0.00109553
4.49118e-06
-4.85706e-08
0.00109747
5.25334e-06
0.000884281
4.70011e-06
2.0699e-06
0.000872776
3.97592e-06
8.02269e-06
0.00109423
4.9175e-06
6.08514e-06
0.00109835
3.80823e-06
4.51324e-06
0.00108574
4.26896e-06
2.60094e-06
0.00108078
4.37416e-06
5.39251e-07
0.00108137
4.36982e-06
-1.53666e-06
0.00108753
4.27595e-06
-4.1313e-06
0.0011005
3.77038e-06
7.55399e-07
0.00109713
4.80909e-06
0.0008836
4.25185e-06
2.03525e-06
0.000869041
3.53402e-06
7.91723e-06
0.00109275
4.70543e-06
6.2595e-06
0.00110223
3.26319e-06
5.14667e-06
0.00108976
3.90608e-06
3.39191e-06
0.00108488
3.91394e-06
1.43226e-06
0.00108567
3.90365e-06
-3.12671e-07
0.00109217
3.91633e-06
-2.85867e-06
0.00110525
3.19061e-06
1.4979e-06
0.00109718
4.51303e-06
0.000883356
3.9512e-06
2.22934e-06
0.00086482
3.19942e-06
8.10877e-06
0.00109112
4.59253e-06
6.73407e-06
0.0011057
2.81023e-06
6.03401e-06
0.00109341
3.64166e-06
4.42318e-06
0.00108874
3.54334e-06
2.51111e-06
0.00108979
3.51754e-06
1.01324e-06
0.00109664
3.65664e-06
-1.51925e-06
0.00110987
2.71362e-06
2.28168e-06
0.00109763
4.30775e-06
0.000883641
3.72222e-06
2.777e-06
0.000859904
2.93028e-06
8.65459e-06
0.00108927
4.51999e-06
7.56209e-06
0.00110882
2.44206e-06
7.22906e-06
0.00109673
3.44354e-06
5.75337e-06
0.00109236
3.23366e-06
3.88032e-06
0.00109375
3.18586e-06
2.5063e-06
0.00110098
3.45728e-06
-2.23281e-07
0.00111451
2.31326e-06
3.0676e-06
0.00109836
4.17458e-06
0.0008846
3.50624e-06
3.82046e-06
0.00085399
2.74252e-06
9.4533e-06
0.00108716
4.4181e-06
8.77913e-06
0.00111138
2.10934e-06
8.80934e-06
0.00109966
3.27466e-06
7.47188e-06
0.00109572
2.96203e-06
5.61788e-06
0.00109758
2.89769e-06
4.2534e-06
0.00110524
3.28833e-06
1.32792e-06
0.00111919
1.93502e-06
3.96792e-06
0.00109958
4.08448e-06
0.00088631
3.32441e-06
5.2995e-06
0.000846658
2.6329e-06
1.07115e-05
0.00108478
4.28554e-06
1.05142e-05
0.00111333
1.82561e-06
1.09079e-05
0.00110221
3.14496e-06
9.69901e-06
0.00109885
2.74817e-06
7.8176e-06
0.00110133
2.66321e-06
6.40153e-06
0.00110955
3.17676e-06
3.26915e-06
0.00112401
1.61249e-06
4.95743e-06
0.00110162
4.01981e-06
0.00088883
3.18553e-06
7.15023e-06
0.000837514
2.55203e-06
1.26962e-05
0.00108198
4.24303e-06
1.29722e-05
0.00111472
1.66169e-06
1.36949e-05
0.00110441
3.07571e-06
1.25971e-05
0.0011018
2.60124e-06
1.06308e-05
0.00110507
2.48529e-06
9.03347e-06
0.00111401
3.11631e-06
5.50127e-06
0.00112915
1.36273e-06
6.08121e-06
0.00110455
3.98062e-06
0.000892471
3.05283e-06
9.48335e-06
0.000826048
2.51463e-06
1.55051e-05
0.0010785
4.28401e-06
1.63257e-05
0.0011155
1.62115e-06
1.73546e-05
0.00110629
3.07085e-06
1.63587e-05
0.00110459
2.53094e-06
1.42386e-05
0.00110889
2.36676e-06
1.23141e-05
0.00111875
3.10156e-06
8.20078e-06
0.00113479
1.18804e-06
7.45919e-06
0.00110853
3.97213e-06
0.000897608
2.96959e-06
1.24914e-05
0.000811609
2.55185e-06
1.932e-05
0.00107402
4.42445e-06
2.07932e-05
0.00111555
1.71434e-06
2.21307e-05
0.00110783
3.14207e-06
2.12291e-05
0.00110728
2.55302e-06
1.88732e-05
0.00111289
2.32549e-06
1.64433e-05
0.00112396
3.15018e-06
1.1525e-05
0.00114116
1.10787e-06
9.18643e-06
0.00111383
4.00168e-06
0.000904675
2.96107e-06
1.63591e-05
0.000793371
2.72623e-06
2.43895e-05
0.00106819
4.6854e-06
2.66647e-05
0.00111478
1.9761e-06
2.83398e-05
0.00110902
3.32326e-06
2.75297e-05
0.0011099
2.6937e-06
2.48439e-05
0.00111717
2.37661e-06
2.17035e-05
0.00112983
3.26766e-06
1.57344e-05
0.00114856
1.12751e-06
1.14024e-05
0.00112087
4.07796e-06
0.000914182
3.05885e-06
2.12619e-05
0.000770367
3.12861e-06
3.10618e-05
0.00106051
5.12739e-06
3.43138e-05
0.00111306
2.45261e-06
3.63711e-05
0.00110984
3.65391e-06
3.56536e-05
0.00111248
2.98744e-06
3.25428e-05
0.00112188
2.55489e-06
2.8456e-05
0.00113661
3.48234e-06
2.10993e-05
0.00115735
1.27442e-06
1.42724e-05
0.00113026
4.23976e-06
0.000926808
3.30105e-06
2.73472e-05
0.000741536
3.88567e-06
3.9727e-05
0.00105029
5.83581e-06
4.41971e-05
0.00111023
3.21892e-06
4.67074e-05
0.00111026
4.20159e-06
4.61019e-05
0.00111507
3.49185e-06
4.24794e-05
0.00112715
2.91809e-06
3.71839e-05
0.0011446
3.84296e-06
2.80103e-05
0.00116801
1.58813e-06
1.80011e-05
0.00114273
4.521e-06
0.000943493
3.73955e-06
3.46799e-05
0.000705824
5.15305e-06
5.08501e-05
0.00103655
6.96608e-06
5.68622e-05
0.0011061
4.39066e-06
5.99361e-05
0.00111025
5.07047e-06
5.95131e-05
0.0011177
4.29666e-06
5.53236e-05
0.00113314
3.54892e-06
4.85289e-05
0.00115414
4.42176e-06
3.69994e-05
0.00118115
2.13254e-06
2.29001e-05
0.00115928
4.98626e-06
0.000965531
4.45447e-06
4.32337e-05
0.000662372
7.13003e-06
6.48614e-05
0.00101792
8.72083e-06
7.29299e-05
0.00110032
6.10576e-06
7.67611e-05
0.00110975
6.3959e-06
7.6685e-05
0.00112037
5.52442e-06
7.19521e-05
0.00113995
4.55984e-06
6.33813e-05
0.00116565
5.3188e-06
4.88309e-05
0.00119755
3.00031e-06
2.94358e-05
0.00118123
5.72645e-06
0.000994742
5.55324e-06
5.27702e-05
0.00061074
1.00449e-05
8.19579e-05
0.000992755
1.13193e-05
9.30394e-05
0.00109228
8.55099e-06
9.80067e-05
0.00110858
8.35763e-06
9.8607e-05
0.00112295
7.3344e-06
9.35365e-05
0.00114761
6.09925e-06
8.29935e-05
0.00117949
6.67059e-06
6.46316e-05
0.00121821
4.32213e-06
3.83399e-05
0.00121042
6.87457e-06
0.00103374
7.17845e-06
6.27689e-05
0.000551084
1.40465e-05
0.000102028
0.000959143
1.50102e-05
0.000117756
0.0010809
1.19521e-05
0.000124612
0.00110638
1.11922e-05
0.000126518
0.00112516
9.93477e-06
0.00012166
0.0011559
8.352e-06
0.000109193
0.00119595
8.64099e-06
8.61489e-05
0.00124432
6.26096e-06
5.07744e-05
0.00124944
8.61986e-06
0.00108647
9.51688e-06
7.2332e-05
0.00048412
1.89873e-05
0.00012417
0.000915227
1.99245e-05
0.000147206
0.00106435
1.65279e-05
0.000157502
0.00110229
1.51732e-05
0.000161904
0.00112642
1.3572e-05
0.000158451
0.00116422
1.15293e-05
0.000144698
0.00121492
1.14059e-05
0.000116288
0.0012771
8.97971e-06
6.88033e-05
0.00130191
1.11358e-05
0.00115921
1.2785e-05
8.01026e-05
0.000411099
2.40256e-05
0.00014675
0.000859034
2.5932e-05
0.000180989
0.00103989
2.25067e-05
0.00019752
0.00109481
2.05993e-05