/*--------------------------------*- C++ -*----------------------------------*\
| =========                 |                                                 |
| \\      /  F ield         | OpenFOAM: The Open Source CFD Toolbox           |
|  \\    /   O peration     | Version:  4.1                                   |
|   \\  /    A nd           | Web:      www.OpenFOAM.org                      |
|    \\/     M anipulation  |                                                 |
\*---------------------------------------------------------------------------*/
FoamFile
{
    version     2.0;
    format      ascii;
    class       volVectorField;
    location    "1700";
    object      U;
}
// * * * * * * * * * * * * * * * * * * * * * * * * * * * * * * * * * * * * * //

dimensions      [0 1 -1 0 0 0 0];

internalField   nonuniform List<vector> 
12000
(
(0.091969 -0.00969384 0.00968849)
(0.0965653 -0.00181553 0.0106985)
(0.0959749 -0.00135706 0.0110977)
(0.0955858 -0.000559803 0.0111133)
(0.0954895 -0.00015093 0.0111423)
(0.0954896 0.000134317 0.0111423)
(0.0955861 0.000544431 0.0111135)
(0.0959751 0.00134282 0.0110979)
(0.0965663 0.00180096 0.0106972)
(0.091972 0.0097028 0.00969041)
(0.0861867 -0.00381459 0.00380233)
(0.0951132 -0.00253558 0.00536604)
(0.0937165 -0.00196661 0.00572332)
(0.0926428 -0.000883248 0.00567841)
(0.0923071 -0.000277728 0.00570985)
(0.0923083 0.000234955 0.00570951)
(0.0926461 0.000842492 0.0056774)
(0.0937203 0.00192527 0.0057209)
(0.0951174 0.00248759 0.00537466)
(0.0861968 0.0038178 0.00381794)
(0.0822438 0.000769002 -0.000790747)
(0.0931025 -0.00254687 0.00034608)
(0.0918797 -0.00163504 0.000483469)
(0.0906499 -0.000787789 0.000450099)
(0.0901715 -0.000297588 0.000481868)
(0.0901749 0.000222256 0.000480712)
(0.0906586 0.000717047 0.000446334)
(0.0918884 0.00156697 0.000471601)
(0.0931102 0.00248159 0.000357902)
(0.0822949 -0.000776143 -0.000770338)
(0.0795304 0.00270265 -0.00273553)
(0.0907074 -0.00248468 -0.00239028)
(0.0901041 -0.00115239 -0.00240232)
(0.0890787 -0.000658769 -0.0023428)
(0.088571 -0.000297343 -0.00229963)
(0.0885781 0.000182128 -0.00230121)
(0.0890977 0.000552094 -0.00235248)
(0.0901242 0.00105209 -0.00243126)
(0.0907255 0.00239629 -0.00236762)
(0.0796369 -0.0027089 -0.00269093)
(0.0781413 0.00323031 -0.00327681)
(0.089011 -0.00239833 -0.00362163)
(0.0890601 -0.000765834 -0.00371482)
(0.0882547 -0.000617977 -0.00353034)
(0.0877373 -0.000309076 -0.00347205)
(0.0877492 0.0001421 -0.00347384)
(0.0882891 0.000464477 -0.0035422)
(0.0890992 0.000623697 -0.00374999)
(0.0890441 0.00228685 -0.0035973)
(0.0783204 -0.00325984 -0.00322982)
(0.0773971 0.0031442 -0.00320683)
(0.087942 -0.00227843 -0.00399461)
(0.0885856 -0.000472527 -0.00421428)
(0.0879017 -0.000626856 -0.00392378)
(0.0873605 -0.000321304 -0.00385928)
(0.0873784 8.70202e-05 -0.00386162)
(0.087956 0.000412863 -0.00393019)
(0.0886531 0.000278631 -0.00423248)
(0.0879993 0.00214007 -0.00397186)
(0.0776787 -0.00322159 -0.00317843)
(0.0767449 0.00282516 -0.00290706)
(0.0871402 -0.00214622 -0.00394692)
(0.0883144 -0.000255465 -0.00430055)
(0.0876838 -0.000655163 -0.0039311)
(0.0871293 -0.000328964 -0.00387557)
(0.0871554 8.14808e-06 -0.00387748)
(0.0877656 0.00036407 -0.00393337)
(0.0884236 -3.52585e-06 -0.00430005)
(0.0872191 0.00196904 -0.00391814)
(0.0771657 -0.00295851 -0.00289759)
(0.0760164 0.00244531 -0.00255231)
(0.0864236 -0.00202102 -0.00369599)
(0.0880647 -0.000115726 -0.00417737)
(0.0874516 -0.00070421 -0.00375973)
(0.0869109 -0.000339984 -0.00372359)
(0.0869486 -9.08164e-05 -0.00372374)
(0.087571 0.000313986 -0.00375959)
(0.0882334 -0.000229205 -0.0041692)
(0.0865331 0.00178365 -0.00368402)
(0.076627 -0.0026406 -0.00255578)
(0.0752393 0.00206935 -0.00220942)
(0.0857801 -0.00190866 -0.00335876)
(0.0878222 -4.77377e-05 -0.00397131)
(0.0872009 -0.000775899 -0.00352696)
(0.0866984 -0.000364402 -0.00351051)
(0.0867516 -0.000208707 -0.00350897)
(0.0873681 0.00025854 -0.00352174)
(0.0880697 -0.000404899 -0.00395346)
(0.0859173 0.00158964 -0.00335232)
(0.0761025 -0.00233859 -0.00222289)
(0.0744351 0.00172481 -0.00190837)
(0.0852164 -0.00181468 -0.00303178)
(0.0875967 -3.85393e-05 -0.00374775)
(0.086952 -0.000869388 -0.003289)
(0.0865067 -0.00041081 -0.00328945)
(0.0865817 -0.000349083 -0.00328657)
(0.0871842 0.000186849 -0.00327561)
(0.0879524 -0.000552308 -0.0037229)
(0.0853739 0.0013847 -0.00300852)
(0.0756366 -0.00207414 -0.00191942)
(0.0735942 0.00141045 -0.0016515)
(0.0847225 -0.0017529 -0.00271512)
(0.0873762 -8.81291e-05 -0.00352542)
(0.0867043 -0.00099041 -0.00306783)
(0.0863342 -0.000487123 -0.00308305)
(0.0864396 -0.000516743 -0.00307986)
(0.087022 8.7466e-05 -0.00304553)
(0.0878744 -0.000691015 -0.0035047)
(0.0849022 0.00117214 -0.00270905)
(0.0752388 -0.00185504 -0.00165257)
(0.072688 0.00111795 -0.00143521)
(0.0842764 -0.00173768 -0.00241407)
(0.0871509 -0.000199842 -0.00330235)
(0.0864726 -0.00114569 -0.00285572)
(0.0861939 -0.00060506 -0.00288403)
(0.0863298 -0.000717028 -0.00288701)
(0.0869091 -4.68659e-05 -0.00282184)
(0.0878516 -0.000836809 -0.00328454)
(0.0845062 0.000949277 -0.00243611)
(0.0749054 -0.00167822 -0.00141907)
(0.0716968 0.000838693 -0.001257)
(0.083862 -0.00177642 -0.00213354)
(0.0869167 -0.000380409 -0.00307632)
(0.0862331 -0.00134662 -0.00265929)
(0.086057 -0.000779308 -0.00269982)
(0.086247 -0.000961158 -0.00270849)
(0.08681 -0.00022951 -0.00261982)
(0.0878545 -0.00100666 -0.00308037)
(0.0841971 0.000711651 -0.00220198)
(0.0746424 -0.00153815 -0.00121383)
(0.0705955 0.000556158 -0.00110538)
(0.0833738 -0.00186841 -0.00190649)
(0.0866439 -0.000632192 -0.00286767)
(0.0859837 -0.00160793 -0.00248569)
(0.0859284 -0.00102533 -0.00253286)
(0.0861875 -0.00126581 -0.00254828)
(0.0867449 -0.000476518 -0.00244318)
(0.0879022 -0.00121268 -0.00289753)
(0.0840131 0.000458592 -0.00200133)
(0.0744655 -0.00142981 -0.00103182)
(0.0693357 0.000254926 -0.000970557)
(0.0828619 -0.00203216 -0.0017244)
(0.0863291 -0.000961724 -0.00268273)
(0.0857236 -0.00194705 -0.00233681)
(0.0858 -0.00136166 -0.00238438)
(0.0861639 -0.0016471 -0.0024042)
(0.0867354 -0.000802665 -0.0022868)
(0.0880173 -0.0014701 -0.00272971)
(0.0839627 0.000178087 -0.00182905)
(0.0743991 -0.00135481 -0.000871778)
(0.0678439 -7.49999e-05 -0.000849924)
(0.0822924 -0.00228439 -0.00157315)
(0.0859633 -0.00139095 -0.00251264)
(0.0854518 -0.00238944 -0.00220587)
(0.0856733 -0.00181464 -0.00224904)
(0.0861688 -0.00212873 -0.002276)
(0.0867795 -0.00123015 -0.00214953)
(0.0882044 -0.00180063 -0.00257727)
(0.0840522 -0.000145642 -0.00168237)
(0.0744732 -0.00131402 -0.000730272)
(0.0660362 -0.000446086 -0.000738951)
(0.0816548 -0.00265093 -0.00143225)
(0.0855208 -0.00195285 -0.00235052)
(0.0851486 -0.00296757 -0.00208758)
(0.0855397 -0.00241752 -0.00212116)
(0.0862113 -0.00274181 -0.00215394)
(0.0869001 -0.00178758 -0.00202123)
(0.0884946 -0.00222818 -0.00243169)
(0.084326 -0.00052918 -0.00155005)
(0.0747235 -0.00131289 -0.00060223)
(0.0638045 -0.000872573 -0.000630177)
(0.0808725 -0.0031606 -0.00129248)
(0.0849803 -0.00269023 -0.00218619)
(0.0848041 -0.00372215 -0.00197221)
(0.0853917 -0.00321047 -0.00199205)
(0.0862854 -0.00352494 -0.00203104)
(0.0871035 -0.00251305 -0.00189588)
(0.088907 -0.00278669 -0.00228799)
(0.0847969 -0.000999649 -0.0014296)
(0.0751928 -0.00135798 -0.000480626)
(0.0610135 -0.00136874 -0.000511728)
(0.07987 -0.00384876 -0.00113757)
(0.0843002 -0.00365464 -0.0020077)
(0.084394 -0.00470466 -0.00185113)
(0.0852131 -0.00424707 -0.00185512)
(0.0863857 -0.00453071 -0.00190125)
(0.0874004 -0.00345554 -0.0017675)
(0.0894684 -0.00351945 -0.00214052)
(0.0855287 -0.00158653 -0.00131004)
(0.0759348 -0.00145904 -0.000357878)
(0.0574916 -0.00194334 -0.000368159)
(0.0784958 -0.00475264 -0.000955981)
(0.0834326 -0.00491092 -0.00180439)
(0.0838848 -0.00597924 -0.00171557)
(0.0849784 -0.00559403 -0.00170442)
(0.0865012 -0.00582663 -0.00175882)
(0.0877993 -0.00467858 -0.00163056)
(0.0901965 -0.00447961 -0.00197916)
(0.0865715 -0.00233092 -0.00118249)
(0.0770199 -0.00163117 -0.000225192)
(0.0530322 -0.00259349 -0.000177214)
(0.0765504 -0.00590488 -0.000728666)
(0.0823072 -0.006532 -0.00156109)
(0.0832281 -0.00762632 -0.00155421)
(0.0846505 -0.00733228 -0.00153217)
(0.0866121 -0.00749863 -0.00159289)
(0.088309 -0.00626785 -0.00147473)
(0.09112 -0.00574372 -0.00179432)
(0.0879885 -0.00328939 -0.00103833)
(0.0785416 -0.00189625 -7.16237e-05)
(0.0474068 -0.00328863 8.35419e-05)
(0.0737418 -0.00731604 -0.000428004)
(0.0808119 -0.00859062 -0.00125514)
(0.0823603 -0.00974244 -0.00134824)
(0.0841764 -0.00956047 -0.00132505)
(0.0866787 -0.00965755 -0.00139036)
(0.0889219 -0.00833987 -0.00128825)
(0.0922758 -0.00742037 -0.00157335)
(0.0898664 -0.00454307 -0.000863442)
(0.08063 -0.00228653 0.000118419)
(0.040407 -0.00395071 0.000426688)
(0.0696713 -0.00894958 -2.34814e-05)
(0.0787338 -0.0111325 -0.000863271)
(0.0811736 -0.0124297 -0.0010742)
(0.0834709 -0.0123968 -0.00106391)
(0.0866258 -0.0124477 -0.00113053)
(0.0896162 -0.0110538 -0.00105006)
(0.0936992 -0.00967037 -0.00130004)
(0.092304 -0.0062163 -0.000644881)
(0.0834599 -0.00285432 0.000364714)
(0.03192 -0.00442474 0.000838244)
(0.0638404 -0.0106613 0.000494555)
(0.0757577 -0.0141133 -0.000347781)
(0.0794946 -0.0157803 -0.000695696)
(0.0823947 -0.0159834 -0.000723091)
(0.0863284 -0.0160536 -0.000787411)
(0.0903172 -0.0146322 -0.000732444)
(0.0954139 -0.0127353 -0.000948238)
(0.0954566 -0.00849983 -0.000354381)
(0.0873009 -0.00367884 0.000696026)
(0.0220635 -0.00444146 0.00123308)
(0.0557382 -0.0121233 0.00108705)
(0.0712766 -0.0173068 0.00031509)
(0.0769616 -0.019822 -0.000161807)
(0.0807161 -0.0204838 -0.000262461)
(0.0855685 -0.0207149 -0.000328816)
(0.0908779 -0.0193826 -0.000297756)
(0.0974168 -0.0169797 -0.000480861)
(0.0995288 -0.0117171 4.99561e-05)
(0.0925404 -0.00492109 0.0011507)
(0.0113606 -0.00357057 0.00134533)
(0.0450346 -0.0127234 0.00157175)
(0.0644634 -0.0201554 0.00112628)
(0.0729305 -0.0243926 0.000616257)
(0.0780345 -0.0260702 0.000388419)
(0.0840031 -0.0267622 0.000285741)
(0.0909882 -0.0257526 0.000296306)
(0.0995882 -0.0229818 0.000151872)
(0.104741 -0.0164128 0.000625993)
(0.0999719 -0.00680095 0.00178995)
(0.00103443 -0.000953912 0.00126257)
(0.0316551 -0.0115131 0.0016752)
(0.0539554 -0.0217169 0.00191648)
(0.066064 -0.0289355 0.00170131)
(0.0735102 -0.0327286 0.00137363)
(0.0810807 -0.0345432 0.00114964)
(0.0902034 -0.034336 0.00110764)
(0.101729 -0.0316651 0.00100577)
(0.111471 -0.0236851 0.001451)
(0.110619 -0.0100634 0.00270093)
(-0.00292944 0.00251319 0.0022853)
(0.0178768 -0.00752373 0.0022551)
(0.0393436 -0.0206195 0.00293608)
(0.0547954 -0.0324058 0.00310215)
(0.0656544 -0.0401839 0.00277248)
(0.0756225 -0.0445303 0.00237565)
(0.087338 -0.0460629 0.00221454)
(0.102822 -0.0444594 0.00215293)
(0.119363 -0.0355595 0.00261088)
(0.128465 -0.0152814 0.00402606)
(-0.00608388 0.000303519 0.00112014)
(-0.000751539 -0.00480973 0.00250415)
(0.0179374 -0.0165017 0.00451596)
(0.0365031 -0.0317987 0.00541683)
(0.0519771 -0.0454567 0.00515625)
(0.0661033 -0.0554941 0.0043851)
(0.0815707 -0.0616827 0.00383259)
(0.102521 -0.0636706 0.00363076)
(0.128527 -0.0567711 0.00423734)
(0.155466 -0.0286684 0.00589666)
(-0.0128127 -0.00442074 -0.00164131)
(-0.0158494 -0.0141145 -0.00189669)
(-0.00563954 -0.0231028 0.000815771)
(0.0101063 -0.0335096 0.00454788)
(0.0270612 -0.0475915 0.00682356)
(0.0452295 -0.0634022 0.00726637)
(0.0648297 -0.0792587 0.00665664)
(0.0940494 -0.0896728 0.00601043)
(0.12725 -0.101911 0.00610915)
(0.217385 -0.047587 0.00860432)
(0.0965617 -0.0107035 0.00180775)
(0.101323 -0.0013751 0.00136931)
(0.100921 -0.00123118 0.00148118)
(0.100647 -0.00046545 0.00145594)
(0.100604 -0.000115418 0.00146941)
(0.100604 0.000103345 0.00146938)
(0.100648 0.000454589 0.00145586)
(0.100923 0.00122234 0.00148033)
(0.10133 0.00136732 0.00137101)
(0.0965632 0.010785 0.00181685)
(0.0951015 -0.00537741 0.00251702)
(0.108613 -0.00238147 0.002365)
(0.106222 -0.00200859 0.00248574)
(0.105043 -0.000790364 0.00243457)
(0.104812 -0.000246109 0.00246902)
(0.104814 0.000207903 0.00246919)
(0.105048 0.000754874 0.0024337)
(0.106233 0.00197151 0.00248163)
(0.108635 0.00232007 0.00236212)
(0.0950855 0.00543244 0.00252545)
(0.0930766 -0.000366239 0.00251606)
(0.112102 -0.00285454 0.00282657)
(0.109278 -0.00171429 0.0028569)
(0.107674 -0.000664466 0.00279266)
(0.107332 -0.000281822 0.00283682)
(0.107336 0.000205688 0.00283737)
(0.107686 0.00059274 0.00279259)
(0.109291 0.00164705 0.00285583)
(0.112097 0.00278991 0.00283032)
(0.093118 0.000399151 0.00251912)
(0.0906583 0.0023597 0.0024398)
(0.112368 -0.00324117 0.00320144)
(0.110076 -0.00121159 0.00312559)
(0.108537 -0.000528358 0.00307965)
(0.108188 -0.000301943 0.00313238)
(0.108195 0.00018444 0.00313278)
(0.108559 0.000418282 0.00308109)
(0.110102 0.00111114 0.00312664)
(0.112367 0.00315964 0.00320682)
(0.0907609 -0.00234362 0.00243431)
(0.0889286 0.00357884 0.00233578)
(0.111427 -0.00350889 0.00345425)
(0.110002 -0.000779438 0.00327934)
(0.108648 -0.000522538 0.00328186)
(0.108294 -0.000333561 0.0033403)
(0.108306 0.000166163 0.00334051)
(0.108683 0.000367762 0.00328373)
(0.110048 0.0006343 0.00328218)
(0.111444 0.00341255 0.0034663)
(0.0891225 -0.00364369 0.00232166)
(0.0878122 0.00393723 0.00219331)
(0.110484 -0.00362444 0.00355091)
(0.109893 -0.000425571 0.00328952)
(0.108683 -0.000585473 0.0033463)
(0.108291 -0.00035433 0.00339484)
(0.108311 0.00012641 0.00339546)
(0.108737 0.000376811 0.00334664)
(0.109965 0.00022502 0.00329112)
(0.110527 0.00349819 0.00356289)
(0.0881337 -0.0040933 0.00218024)
(0.0869446 0.00387153 0.00203158)
(0.109638 -0.00365002 0.00355226)
(0.109797 -0.000159041 0.00321957)
(0.108708 -0.000672765 0.00332714)
(0.108274 -0.000355397 0.00334948)
(0.108302 5.1337e-05 0.00335063)
(0.108787 0.000396817 0.00332683)
(0.109904 -0.000110913 0.00322037)
(0.109743 0.00348302 0.00356513)
(0.0874251 -0.00408844 0.00202921)
(0.0861383 0.00359776 0.0018675)
(0.10885 -0.00362142 0.0034918)
(0.109665 1.21942e-05 0.00311611)
(0.108692 -0.000777529 0.00327435)
(0.108231 -0.000347724 0.00326207)
(0.108269 -5.39017e-05 0.00326358)
(0.108804 0.00041805 0.00327394)
(0.109819 -0.000369326 0.00311766)
(0.109037 0.00340752 0.0035149)
(0.0868266 -0.00388243 0.00187747)
(0.0853747 0.00323033 0.00170433)
(0.108123 -0.00355623 0.00338397)
(0.109511 9.82408e-05 0.00299509)
(0.108646 -0.000900553 0.00320314)
(0.108172 -0.000344761 0.00315434)
(0.108225 -0.000183376 0.00315617)
(0.108803 0.000431715 0.00320413)
(0.109728 -0.000569307 0.0029961)
(0.108439 0.00327112 0.00341312)
(0.0863182 -0.00357234 0.00172916)
(0.0846514 0.00286334 0.00154328)
(0.107464 -0.00348081 0.00325149)
(0.109359 0.000113038 0.00286126)
(0.108597 -0.00104193 0.00311407)
(0.108119 -0.000357038 0.00303173)
(0.10819 -0.000335655 0.00303232)
(0.10881 0.000427935 0.00311776)
(0.109663 -0.000735974 0.00286161)
(0.107983 0.00309681 0.00328513)
(0.0859066 -0.00324717 0.001584)
(0.0839476 0.00249367 0.00139301)
(0.106827 -0.00340381 0.00309859)
(0.10921 6.50777e-05 0.00272572)
(0.108552 -0.00119889 0.00302038)
(0.108079 -0.000394289 0.00290841)
(0.108174 -0.00051289 0.00290088)
(0.108838 0.000397396 0.0030291)
(0.109636 -0.000886537 0.0027303)
(0.107636 0.00289947 0.00314934)
(0.0855993 -0.0029671 0.00144698)
(0.0832289 0.00212235 0.00126062)
(0.106184 -0.00332822 0.00292296)
(0.109046 -4.42232e-05 0.00259625)
(0.108487 -0.0013712 0.00291147)
(0.10803 -0.00046836 0.00277332)
(0.108166 -0.000717816 0.00276492)
(0.108861 0.000325083 0.00291564)
(0.10962 -0.0010305 0.00258385)
(0.107374 0.00267138 0.00300286)
(0.0853939 -0.00272337 0.00132546)
(0.0824639 0.00174928 0.00114384)
(0.105541 -0.00322824 0.00269594)
(0.108845 -0.000209171 0.00246526)
(0.108416 -0.00156996 0.00279427)
(0.10799 -0.000587993 0.00263746)
(0.108168 -0.000958506 0.002627)
(0.108918 0.00020757 0.00279485)
(0.109651 -0.00119066 0.00243637)
(0.107189 0.00243394 0.00285689)
(0.0853034 -0.00252813 0.00121425)
(0.0815156 0.00140568 0.00103293)
(0.105023 -0.003192 0.00249731)
(0.108632 -0.000424156 0.00234256)
(0.108334 -0.00181337 0.00268486)
(0.107952 -0.000768153 0.00251228)
(0.108188 -0.00124521 0.00249994)
(0.109007 3.40351e-05 0.00269069)
(0.109724 -0.00137499 0.00230863)
(0.10704 0.00217573 0.00272224)
(0.0853682 -0.00237717 0.00111504)
(0.0804146 0.00107764 0.000933553)
(0.104501 -0.00324964 0.00234136)
(0.108389 -0.00071555 0.00223754)
(0.108235 -0.00212215 0.00258795)
(0.107921 -0.00102849 0.00240194)
(0.108221 -0.00159189 0.0023824)
(0.109121 -0.000213439 0.00259071)
(0.109843 -0.00159647 0.00219064)
(0.106945 0.00187457 0.0025801)
(0.0856075 -0.00226682 0.00103275)
(0.0790975 0.000744938 0.000846354)
(0.103947 -0.00339639 0.00221074)
(0.108101 -0.0011014 0.00214328)
(0.108107 -0.00251369 0.0024975)
(0.107889 -0.00139233 0.00230838)
(0.108277 -0.00201874 0.00227887)
(0.109279 -0.000551233 0.00249996)
(0.110034 -0.00187613 0.00208749)
(0.106972 0.00153448 0.00245051)
(0.0859914 -0.00219242 0.000969141)
(0.0775332 0.000378645 0.000777753)
(0.103282 -0.00363604 0.00209246)
(0.107757 -0.00160585 0.00206438)
(0.107953 -0.00301353 0.00241903)
(0.107858 -0.00188731 0.00223291)
(0.108356 -0.00254904 0.00219113)
(0.109484 -0.00100745 0.00241937)
(0.110299 -0.0022308 0.00200292)
(0.107131 0.00112892 0.00232478)
(0.0865666 -0.0021492 0.000928344)
(0.0756192 -3.61168e-05 0.000733458)
(0.102494 -0.0039927 0.0019934)
(0.107339 -0.00226185 0.00201103)
(0.107759 -0.0036539 0.00235858)
(0.107826 -0.00254974 0.00217834)
(0.108469 -0.00321616 0.00211862)
(0.109756 -0.00161218 0.0023479)
(0.110669 -0.00269064 0.00193616)
(0.107488 0.000647954 0.00221781)
(0.0873607 -0.00214438 0.000909915)
(0.0732801 -0.000520503 0.000726739)
(0.101507 -0.00449397 0.00192261)
(0.106835 -0.00311198 0.00198675)
(0.107522 -0.0044777 0.0023197)
(0.107798 -0.00342309 0.00214791)
(0.108632 -0.00406318 0.00206882)
(0.11012 -0.00240567 0.00229258)
(0.111176 -0.00328725 0.00189361)
(0.108067 6.82564e-05 0.0021392)
(0.0884545 -0.0021832 0.000921024)
(0.0703832 -0.00108201 0.000774591)
(0.10027 -0.00517104 0.00189598)
(0.10623 -0.00420715 0.00200119)
(0.107236 -0.00553972 0.00231153)
(0.107778 -0.0045621 0.00215052)
(0.108859 -0.00514691 0.00205156)
(0.110608 -0.00344303 0.00226376)
(0.111876 -0.00407005 0.00188223)
(0.108937 -0.000651872 0.00208762)
(0.0899298 -0.00227583 0.000971131)
(0.0668078 -0.00172405 0.000902341)
(0.09867 -0.00606794 0.00194458)
(0.105496 -0.00561052 0.00206894)
(0.106895 -0.00690879 0.00234967)
(0.107768 -0.00603655 0.00220095)
(0.109166 -0.00654134 0.00207953)
(0.11125 -0.00479734 0.00227139)
(0.112835 -0.00510602 0.00191255)
(0.110195 -0.00155703 0.00207731)
(0.0918978 -0.0024424 0.00107341)
(0.0624143 -0.00244178 0.00114192)
(0.0965577 -0.0072096 0.00209722)
(0.104593 -0.00738554 0.00220448)
(0.106485 -0.00866595 0.00245111)
(0.10776 -0.00793351 0.00231731)
(0.109562 -0.00834394 0.00216871)
(0.112089 -0.00656856 0.00233377)
(0.114127 -0.00648973 0.0019988)
(0.111962 -0.00271763 0.00212173)
(0.0945178 -0.00271254 0.00124671)
(0.0570523 -0.00320902 0.00152111)
(0.0937261 -0.00859163 0.00238402)
(0.103457 -0.00959849 0.00245356)
(0.105985 -0.0109095 0.00264147)
(0.107734 -0.0103603 0.00251969)
(0.110053 -0.0106835 0.00234474)
(0.113158 -0.0088969 0.0024744)
(0.115848 -0.00836368 0.00216401)
(0.114419 -0.00423271 0.00225511)
(0.098004 -0.00313067 0.00151739)
(0.0505553 -0.00394615 0.00204374)
(0.0899141 -0.0101795 0.00283769)
(0.101926 -0.012283 0.00285061)
(0.105337 -0.0137465 0.00295958)
(0.107651 -0.0134517 0.00284234)
(0.110615 -0.0137321 0.00263813)
(0.114486 -0.0119798 0.00272396)
(0.118109 -0.0109339 0.00243984)
(0.117781 -0.00626852 0.00251992)
(0.102699 -0.00376577 0.00192712)
(0.0428154 -0.00449942 0.00264051)
(0.0847091 -0.0118435 0.00345218)
(0.0997367 -0.0153927 0.00343732)
(0.104427 -0.0172843 0.00346627)
(0.107424 -0.017376 0.0033368)
(0.111192 -0.0177227 0.00309854)
(0.116083 -0.0161047 0.0031287)
(0.121042 -0.0145317 0.00287325)
(0.122361 -0.00911892 0.0029575)
(0.109087 -0.00475559 0.00253808)
(0.0338328 -0.00459974 0.00311003)
(0.07764 -0.0132807 0.00414479)
(0.0964039 -0.0187234 0.00425614)
(0.103 -0.0215907 0.00425225)
(0.106889 -0.0223513 0.00407795)
(0.111624 -0.022978 0.00379178)
(0.117862 -0.0216981 0.00375339)
(0.124731 -0.0196991 0.00352759)
(0.128594 -0.0132755 0.00364264)
(0.118093 -0.00629333 0.00343727)
(0.0238555 -0.00389705 0.00313114)
(0.068095 -0.0139603 0.00462746)
(0.0910807 -0.0218021 0.00528173)
(0.100535 -0.0265659 0.0054396)
(0.10578 -0.0286014 0.00519957)
(0.111684 -0.0299137 0.00480238)
(0.119661 -0.0293686 0.0046698)
(0.129242 -0.0273292 0.00448155)
(0.137135 -0.0197332 0.00469099)
(0.130924 -0.00909544 0.0047553)
(0.0145872 -0.00179539 0.00332242)
(0.056368 -0.0131304 0.00515941)
(0.0828891 -0.0239623 0.00657116)
(0.0961327 -0.0319224 0.00709442)
(0.103481 -0.0363283 0.00680116)
(0.110799 -0.0390735 0.00621952)
(0.120839 -0.0399672 0.00592793)
(0.134138 -0.0388209 0.00577827)
(0.148221 -0.0304624 0.00619536)
(0.151828 -0.0135482 0.00668179)
(0.0087866 -0.000200979 0.00378291)
(0.0428893 -0.0107026 0.00618299)
(0.0709239 -0.0239616 0.00831002)
(0.0885204 -0.03625 0.00937492)
(0.0993463 -0.0449673 0.00903875)
(0.108744 -0.0509268 0.00814454)
(0.121063 -0.0546411 0.00757372)
(0.139209 -0.0562734 0.00742398)
(0.162378 -0.049506 0.00832605)
(0.183323 -0.025724 0.00941942)
(0.00534905 -0.00254284 0.00115582)
(0.0297384 -0.0109532 0.00535301)
(0.0560137 -0.0242845 0.00858766)
(0.0761713 -0.038889 0.0104692)
(0.0906021 -0.052252 0.0106891)
(0.103064 -0.0638193 0.00980108)
(0.117054 -0.0742587 0.00891606)
(0.141529 -0.0817276 0.00865801)
(0.170793 -0.0908249 0.0101136)
(0.249549 -0.042289 0.0130085)
(0.095972 -0.0111028 0.00134908)
(0.100922 -0.00148649 0.00122543)
(0.100649 -0.00117607 0.00117098)
(0.100408 -0.000463115 0.00118233)
(0.100367 -0.000114612 0.00118773)
(0.100368 0.000104027 0.00118763)
(0.100409 0.000453887 0.00118205)
(0.100652 0.00116889 0.00117032)
(0.100926 0.00148236 0.00122617)
(0.0959723 0.0112133 0.00135301)
(0.0937061 -0.00573502 0.00194623)
(0.106224 -0.00250154 0.00199048)
(0.103687 -0.00192116 0.00190378)
(0.102532 -0.000787472 0.00194929)
(0.102296 -0.00023938 0.00195914)
(0.102297 0.000204133 0.00195894)
(0.102537 0.000755722 0.00194818)
(0.1037 0.00188489 0.00190124)
(0.106257 0.00243069 0.00199123)
(0.0936842 0.00579692 0.00195054)
(0.0918542 -0.000502966 0.00160055)
(0.109278 -0.0028843 0.0016817)
(0.106028 -0.00161366 0.00158162)
(0.104416 -0.00064561 0.00162072)
(0.10407 -0.00026977 0.00162955)
(0.104074 0.000194884 0.0016297)
(0.104428 0.000575362 0.00162023)
(0.10604 0.00154483 0.00158077)
(0.109266 0.00282146 0.00168494)
(0.0919086 0.000531844 0.00160217)
(0.090055 0.00237549 0.00110043)
(0.110074 -0.00316529 0.00116209)
(0.107041 -0.00111266 0.00106394)
(0.10547 -0.000498751 0.00108076)
(0.105124 -0.0002903 0.00109143)
(0.105132 0.000173364 0.00109157)
(0.105493 0.000389751 0.00108058)
(0.107064 0.0010097 0.00106301)
(0.110067 0.00308794 0.00116617)
(0.0901758 -0.00238918 0.00110153)
(0.088979 0.00367816 0.000691357)
(0.109996 -0.00333402 0.000708715)
(0.107539 -0.000683349 0.000613562)
(0.106106 -0.000498825 0.000622362)
(0.105754 -0.000327604 0.000640739)
(0.105767 0.000159583 0.00064075)
(0.106142 0.000343683 0.000622802)
(0.107574 0.000535581 0.000613002)
(0.110003 0.00324074 0.000712294)
(0.0891918 -0.00378605 0.000692843)
(0.088461 0.00416237 0.000369587)
(0.109883 -0.00336074 0.000328125)
(0.108083 -0.00031257 0.000216359)
(0.106724 -0.000570436 0.000227537)
(0.106322 -0.00035138 0.00025044)
(0.106341 0.000121571 0.000250705)
(0.106778 0.000360411 0.000228491)
(0.108136 0.00010988 0.000215541)
(0.109919 0.00324073 0.000329603)
(0.0887912 -0.0043476 0.000374375)
(0.088131 0.0042309 0.00011589)
(0.109786 -0.00331134 2.69679e-05)
(0.108668 -7.17268e-06 -0.000122751)
(0.107349 -0.000658933 -0.000106265)
(0.106891 -0.000348161 -8.77613e-05)
(0.106918 4.20434e-05 -8.72164e-05)
(0.107425 0.000382838 -0.000105159)
(0.108749 -0.000261967 -0.000124487)
(0.109866 0.00315472 2.40581e-05)
(0.0886154 -0.00446982 0.000126325)
(0.0878031 0.00408853 -7.21839e-05)
(0.109654 -0.00323637 -0.000189417)
(0.109191 0.000218201 -0.000391407)
(0.107903 -0.000760605 -0.000362779)
(0.107414 -0.000330079 -0.000355499)
(0.107452 -7.2676e-05 -0.00035547)
(0.108011 0.000402967 -0.000361425)
(0.109313 -0.000569318 -0.000393399)
(0.109792 0.00303042 -0.00019711)
(0.0884897 -0.00437069 -5.53849e-05)
(0.0874574 0.00385603 -0.000203143)
(0.1095 -0.0031534 -0.000333773)
(0.109638 0.000365942 -0.000595736)
(0.108373 -0.000881513 -0.0005464)
(0.107875 -0.000313557 -0.000553764)
(0.107925 -0.000213456 -0.000554847)
(0.108525 0.000418123 -0.000544801)
(0.109817 -0.000825663 -0.000600889)
(0.109729 0.00287658 -0.000348734)
(0.0883885 -0.00416957 -0.000173896)
(0.0870977 0.00359376 -0.000294523)
(0.109347 -0.00306793 -0.000423317)
(0.110037 0.000446541 -0.000749725)
(0.108787 -0.0010209 -0.0006752)
(0.108292 -0.000309878 -0.000699551)
(0.10836 -0.000377591 -0.000701875)
(0.108994 0.000419507 -0.000673306)
(0.110292 -0.00104929 -0.000760795)
(0.109705 0.00269802 -0.000451785)
(0.0883355 -0.00394399 -0.000248808)
(0.0867022 0.00332134 -0.000352953)
(0.109198 -0.00299347 -0.0004718)
(0.110404 0.000470097 -0.000867524)
(0.109166 -0.0011769 -0.000764064)
(0.108686 -0.000328582 -0.000806596)
(0.108777 -0.000566685 -0.000811075)
(0.109444 0.000396056 -0.000761758)
(0.110757 -0.00125443 -0.000883043)
(0.109729 0.00249859 -0.000519897)
(0.0883376 -0.00372969 -0.000296589)
(0.0862519 0.00303434 -0.000383038)
(0.109028 -0.00294548 -0.000487554)
(0.110737 0.000436319 -0.000954865)
(0.109515 -0.00135297 -0.000819797)
(0.109059 -0.00037932 -0.000881042)
(0.10918 -0.000784658 -0.000889643)
(0.109884 0.000336875 -0.000816655)
(0.11122 -0.00145093 -0.000974792)
(0.109801 0.00230532 -0.00056055)
(0.0883878 -0.00353561 -0.000323092)
(0.0857293 0.00272509 -0.00038631)
(0.108817 -0.00291751 -0.00048539)
(0.11102 0.000343315 -0.00101829)
(0.109828 -0.00155441 -0.000853372)
(0.109409 -0.000473507 -0.000932555)
(0.10957 -0.00103663 -0.000944141)
(0.110314 0.000230937 -0.000850963)
(0.111684 -0.00164189 -0.00104351)
(0.109876 0.00206514 -0.000573731)
(0.0885405 -0.00334503 -0.000339167)
(0.0850691 0.00241362 -0.000372649)
(0.108603 -0.00293604 -0.000484737)
(0.111247 0.000183907 -0.00106172)
(0.110102 -0.00179545 -0.000870633)
(0.109734 -0.000626742 -0.000964915)
(0.109948 -0.00133095 -0.00098067)
(0.11074 6.89869e-05 -0.000867833)
(0.112157 -0.00185389 -0.00109224)
(0.110045 0.00179866 -0.000579566)
(0.0887365 -0.00318925 -0.000348867)
(0.084255 0.00209598 -0.000354087)
(0.108349 -0.00301927 -0.000469598)
(0.111416 -5.76717e-05 -0.00108253)
(0.110339 -0.00209498 -0.000874307)
(0.110037 -0.000857965 -0.000981892)
(0.11032 -0.00168135 -0.00100229)
(0.111175 -0.000161406 -0.000870855)
(0.112651 -0.00209606 -0.00112432)
(0.110287 0.00151965 -0.000573601)
(0.0890405 -0.00306534 -0.000348559)
(0.0832374 0.00175958 -0.000330474)
(0.108042 -0.00317347 -0.000440676)
(0.111526 -0.000396806 -0.00108175)
(0.110543 -0.00247048 -0.0008652)
(0.110324 -0.00118801 -0.000984479)
(0.110697 -0.00210499 -0.00101156)
(0.111632 -0.000477659 -0.000863849)
(0.113187 -0.00238583 -0.00114268)
(0.110632 0.00121006 -0.000562147)
(0.0894682 -0.00297607 -0.000336747)
(0.0819611 0.00138423 -0.000297275)
(0.10765 -0.00341321 -0.000392886)
(0.11157 -0.00085508 -0.00105956)
(0.110714 -0.00294476 -0.000844031)
(0.110597 -0.00164278 -0.000971974)
(0.111086 -0.00262488 -0.0010077)
(0.112127 -0.00090248 -0.000845497)
(0.113783 -0.00274074 -0.00114584)
(0.111088 0.000851983 -0.000540738)
(0.0900706 -0.00291538 -0.000312492)
(0.0803498 0.000954363 -0.000247065)
(0.107145 -0.00375819 -0.000325124)
(0.111537 -0.0014612 -0.0010124)
(0.110851 -0.00354783 -0.000807526)
(0.110862 -0.0022557 -0.000941464)
(0.111498 -0.00327167 -0.000989182)
(0.112677 -0.00146635 -0.000815903)
(0.114465 -0.00318629 -0.00113305)
(0.111696 0.00041966 -0.000512359)
(0.0908888 -0.00288659 -0.000275798)
(0.0783148 0.000456068 -0.000169175)
(0.106484 -0.00423414 -0.00022894)
(0.111415 -0.00225283 -0.000933786)
(0.110953 -0.00431768 -0.000751253)
(0.111121 -0.00306721 -0.000889121)
(0.111945 -0.0040839 -0.000952852)
(0.113304 -0.00220789 -0.00077262)
(0.115267 -0.00375538 -0.00110214)
(0.112505 -0.000109266 -0.000472673)
(0.0919808 -0.00289758 -0.000224086)
(0.0757545 -0.000121144 -4.7482e-05)
(0.10561 -0.00486686 -9.49798e-05)
(0.111192 -0.00327535 -0.000813755)
(0.111015 -0.00530138 -0.000667438)
(0.111379 -0.00412747 -0.000808741)
(0.112441 -0.0051117 -0.000892753)
(0.114036 -0.00317797 -0.000711153)
(0.116229 -0.0044932 -0.0010498)
(0.113581 -0.000765014 -0.000418689)
(0.0934264 -0.00296017 -0.000149691)
(0.0725577 -0.00077672 0.000137372)
(0.104445 -0.00568596 9.58793e-05)
(0.110851 -0.0045822 -0.00063615)
(0.111037 -0.00655568 -0.000543844)
(0.11164 -0.00549836 -0.000690079)
(0.113001 -0.00642075 -0.000799306)
(0.114906 -0.00444378 -0.000623366)
(0.117407 -0.00545988 -0.000968984)
(0.115012 -0.0015919 -0.000344049)
(0.0953364 -0.00309013 -4.29224e-05)
(0.0686265 -0.00150058 0.000414444)
(0.102869 -0.0067154 0.000370748)
(0.110367 -0.00622914 -0.000381648)
(0.111013 -0.00814825 -0.000363051)
(0.111905 -0.00725436 -0.00051792)
(0.113639 -0.0080958 -0.000658296)
(0.115951 -0.00609556 -0.000497318)
(0.118869 -0.00674086 -0.000848494)
(0.11691 -0.00265368 -0.000238385)
(0.0978632 -0.00331372 0.000109829)
(0.06389 -0.00226466 0.000819359)
(0.100733 -0.00795431 0.000760662)
(0.109697 -0.00826115 -2.42129e-05)
(0.110933 -0.0101566 -9.9853e-05)
(0.11217 -0.00948418 -0.000270748)
(0.114364 -0.0102471 -0.000450102)
(0.117212 -0.00825677 -0.000314984)
(0.120704 -0.00845949 -0.000671124)
(0.119434 -0.00404782 -8.65284e-05)
(0.101225 -0.00367044 0.000325732)
(0.0583204 -0.00301191 0.00137851)
(0.0978512 -0.00937296 0.00130394)
(0.108764 -0.0107022 0.000474315)
(0.110776 -0.0126641 0.000281826)
(0.112415 -0.0122922 8.13456e-05)
(0.115165 -0.0130193 -0.000146845)
(0.118723 -0.0111009 -5.20054e-05)