/*--------------------------------*- C++ -*----------------------------------*\
| =========                 |                                                 |
| \\      /  F ield         | OpenFOAM: The Open Source CFD Toolbox           |
|  \\    /   O peration     | Version:  4.1                                   |
|   \\  /    A nd           | Web:      www.OpenFOAM.org                      |
|    \\/     M anipulation  |                                                 |
\*---------------------------------------------------------------------------*/
FoamFile
{
    version     2.0;
    format      ascii;
    class       volScalarField;
    location    "600";
    object      epsilon;
}
// * * * * * * * * * * * * * * * * * * * * * * * * * * * * * * * * * * * * * //

dimensions      [0 2 -3 0 0 0 0];

internalField   nonuniform List<scalar> 
12000
(
0.319776
0.312036
0.310836
0.310533
0.310459
0.31046
0.310536
0.310824
0.311878
0.319605
0.0651746
0.0636876
0.0627456
0.0623046
0.0621703
0.0621708
0.062307
0.0627609
0.0637193
0.0652424
0.0176456
0.0177089
0.0173712
0.0171391
0.0170538
0.0170545
0.017139
0.0173619
0.0177107
0.0176588
0.00615593
0.00635076
0.00620953
0.00610417
0.00605941
0.00605873
0.00610497
0.00621207
0.00635434
0.00616043
0.0026348
0.00276227
0.00272087
0.00267047
0.00264464
0.00264523
0.00267019
0.00272043
0.00276217
0.00263671
0.00132268
0.00139718
0.00139107
0.00136534
0.00135159
0.00135115
0.00136771
0.00139167
0.00140105
0.0013252
0.000749879
0.00079837
0.000801019
0.000788497
0.000777306
0.00077826
0.000789226
0.000801812
0.000796306
0.000752029
0.000465409
0.000497617
0.000505704
0.00049537
0.000489455
0.000491226
0.000497908
0.000506739
0.000497984
0.000468164
0.00031001
0.000334379
0.00034094
0.000334624
0.000332407
0.000331001
0.000335791
0.000342117
0.000335778
0.000312983
0.000218107
0.000236636
0.000243101
0.000238558
0.000236051
0.00023641
0.000240527
0.000243491
0.00023796
0.000221178
0.000160337
0.000175186
0.000180515
0.000178647
0.000176644
0.000177036
0.000179872
0.000181986
0.000176796
0.000163529
0.000122106
0.000134337
0.000139794
0.000138253
0.000136978
0.000137309
0.000139392
0.000141227
0.000135786
0.000125425
9.57948e-05
0.000106349
0.000111799
0.000110503
0.000109306
0.000109552
0.000111137
0.000112761
0.00010774
9.92393e-05
7.69919e-05
8.62681e-05
9.09061e-05
9.02401e-05
8.93154e-05
8.95753e-05
9.09083e-05
9.22848e-05
8.7693e-05
8.06051e-05
6.31131e-05
7.1504e-05
7.56474e-05
7.52863e-05
7.45971e-05
7.48382e-05
7.59311e-05
7.71134e-05
7.30876e-05
6.69764e-05
5.25692e-05
6.03201e-05
6.41038e-05
6.38701e-05
6.34039e-05
6.36737e-05
6.46054e-05
6.5624e-05
6.20836e-05
5.67438e-05
4.43443e-05
5.16178e-05
5.51763e-05
5.50452e-05
5.4714e-05
5.49907e-05
5.58323e-05
5.67759e-05
5.36684e-05
4.89415e-05
3.7763e-05
4.47079e-05
4.805e-05
4.80517e-05
4.78791e-05
4.82051e-05
4.89577e-05
4.98358e-05
4.70814e-05
4.28582e-05
3.23564e-05
3.90736e-05
4.22944e-05
4.24114e-05
4.23728e-05
4.26936e-05
4.34126e-05
4.43522e-05
4.1934e-05
3.81231e-05
2.77822e-05
3.43822e-05
3.75459e-05
3.77904e-05
3.78867e-05
3.82991e-05
3.89842e-05
3.99075e-05
3.77867e-05
3.43232e-05
2.37885e-05
3.03417e-05
3.35547e-05
3.39494e-05
3.41299e-05
3.45618e-05
3.52842e-05
3.63137e-05
3.45376e-05
3.13809e-05
2.01649e-05
2.6745e-05
3.01065e-05
3.0699e-05
3.10207e-05
3.15987e-05
3.23051e-05
3.3331e-05
3.18592e-05
2.89574e-05
1.6748e-05
2.33628e-05
2.70712e-05
2.78934e-05
2.8277e-05
2.88947e-05
2.97216e-05
3.0925e-05
2.98327e-05
2.71884e-05
1.33664e-05
2.00556e-05
2.42324e-05
2.54275e-05
2.60169e-05
2.68175e-05
2.7637e-05
2.88751e-05
2.81048e-05
2.57177e-05
9.90202e-06
1.65309e-05
2.14987e-05
2.31261e-05
2.38236e-05
2.468e-05
2.57536e-05
2.72949e-05
2.69413e-05
2.48583e-05
6.14901e-06
1.27586e-05
1.85511e-05
2.09536e-05
2.20377e-05
2.31082e-05
2.41379e-05
2.58435e-05
2.58491e-05
2.41948e-05
2.55001e-06
8.41096e-06
1.52066e-05
1.84076e-05
1.98511e-05
2.11638e-05
2.26355e-05
2.47991e-05
2.53122e-05
2.41591e-05
1.37403e-06
4.6165e-06
1.09717e-05
1.55568e-05
1.80068e-05
1.95784e-05
2.09119e-05
2.35189e-05
2.48219e-05
2.45808e-05
2.14651e-06
3.7589e-06
5.95933e-06
9.65468e-06
1.41426e-05
1.73177e-05
1.93862e-05
2.2285e-05
2.47797e-05
2.49094e-05
4.47891e-06
6.47496e-06
7.10132e-06
7.06448e-06
8.64686e-06
1.12145e-05
1.54142e-05
2.0113e-05
2.37683e-05
2.74132e-05
0.312034
0.906433
0.939968
0.939561
0.939394
0.939392
0.939563
0.939965
0.907253
0.312209
0.0636842
0.0775442
0.0744892
0.0746975
0.0743274
0.0742987
0.0744567
0.0745988
0.0777343
0.0640896
0.0177059
0.0295314
0.02962
0.0295236
0.0292328
0.0293144
0.0293758
0.0282538
0.0295838
0.0178349
0.0063485
0.0127391
0.00978302
0.0100065
0.0103158
0.0100346
0.00999044
0.00977205
0.0128545
0.00642284
0.00276025
0.00558454
0.00320341
0.0030432
0.00317332
0.00302713
0.00300646
0.00332497
0.00566534
0.00279468
0.00139554
0.00250839
0.00110886
0.00104813
0.00097951
0.000982318
0.00101901
0.00116544
0.00254715
0.00141813
0.000796852
0.00115326
0.000473011
0.000395398
0.000420846
0.000396427
0.000327174
0.000513031
0.00117875
0.000805663
0.00049613
0.000560558
0.000220884
0.000169692
0.000183773
0.000167851
0.000152449
0.000215373
0.000569349
0.000504069
0.00033311
0.000329653
9.94788e-05
0.000115639
0.000117937
0.000108156
7.64112e-05
0.000138976
0.000280106
0.000339802
0.000235333
0.000163413
7.78686e-05
7.2042e-05
6.74889e-05
6.26703e-05
4.37876e-05
7.87591e-05
0.000161208
0.000240662
0.000173948
9.0239e-05
5.01514e-05
4.72818e-05
4.28405e-05
3.95108e-05
1.7068e-05
4.96402e-05
9.91219e-05
0.000178739
0.00013308
5.73603e-05
3.34408e-05
2.87861e-05
2.19332e-05
1.70208e-05
8.00704e-06
2.64328e-05
6.0262e-05
0.000137253
0.000105039
4.11561e-05
1.89627e-05
1.86848e-05
1.07433e-05
8.90679e-06
5.62488e-06
1.74152e-05
4.08744e-05
0.000108896
8.49125e-05
3.18046e-05
1.24181e-05
1.37309e-05
7.8524e-06
6.96115e-06
6.43069e-06
1.17506e-05
2.98652e-05
8.87173e-05
7.00867e-05
2.6185e-05
9.35107e-06
1.10659e-05
6.83779e-06
6.19999e-06
6.94925e-06
8.87405e-06
2.34101e-05
7.40269e-05
5.8808e-05
2.27771e-05
7.74995e-06
9.40824e-06
6.99971e-06
6.42603e-06
6.67381e-06
7.3533e-06
1.95821e-05
6.29884e-05
4.99983e-05
2.02862e-05
6.77577e-06
8.27551e-06
6.56039e-06
6.01256e-06
6.233e-06
6.43936e-06
1.6889e-05
5.44463e-05
4.2957e-05
1.85192e-05
6.22718e-06
7.23007e-06
6.11968e-06
5.66181e-06
5.90241e-06
5.83129e-06
1.48303e-05
4.7808e-05
3.71941e-05
1.71911e-05
5.7575e-06
6.24826e-06
5.71236e-06
5.30725e-06
5.59296e-06
5.33049e-06
1.32324e-05
4.24587e-05
3.23582e-05
1.63081e-05
5.54004e-06
5.53257e-06
5.19725e-06
4.86558e-06
5.26633e-06
4.87161e-06
1.18165e-05
3.82255e-05
2.82143e-05
1.5731e-05
5.45332e-06
5.07057e-06
4.84931e-06
4.54154e-06
4.97418e-06
4.56798e-06
1.06317e-05
3.463e-05
2.45269e-05
1.55439e-05
5.60676e-06
4.74158e-06
4.5446e-06
4.29119e-06
4.72206e-06
4.32703e-06
9.52985e-06
3.18007e-05
2.11843e-05
1.56209e-05
5.84755e-06
4.65672e-06
4.40353e-06
4.1469e-06
4.52458e-06
4.22086e-06
8.62425e-06
2.91974e-05
1.79928e-05
1.58446e-05
6.4464e-06
4.68017e-06
4.4298e-06
4.15785e-06
4.46674e-06
4.26708e-06
7.8186e-06
2.72656e-05
1.48798e-05
1.58815e-05
7.80349e-06
4.95397e-06
4.47085e-06
4.25502e-06
4.47507e-06
4.33297e-06
7.22785e-06
2.52436e-05
1.16602e-05
1.65737e-05
9.37356e-06
5.44731e-06
4.82971e-06
4.43679e-06
4.71376e-06
4.68371e-06
6.77344e-06
2.38727e-05
8.43323e-06
1.74394e-05
1.16006e-05
6.45448e-06
5.08906e-06
4.94239e-06
4.95124e-06
4.91679e-06
6.76597e-06
2.2227e-05
5.19506e-06
1.91023e-05
1.44001e-05
8.10282e-06
6.0248e-06
5.35822e-06
5.49028e-06
5.67184e-06
6.764e-06
2.06038e-05
3.60003e-06
2.22815e-05
1.9191e-05
1.10138e-05
7.55579e-06
6.48696e-06
6.41544e-06
6.58165e-06
9.30971e-06
1.94869e-05
3.83614e-06
2.48108e-05
2.61571e-05
1.77402e-05
1.09429e-05
8.2304e-06
8.032e-06
8.42838e-06
1.36072e-05
1.86327e-05
0.310835
0.939966
0.95011
0.949638
0.949487
0.949509
0.949622
0.95012
0.940458
0.311238
0.0627428
0.0744417
0.100654
0.0973374
0.097566
0.0970076
0.0977496
0.100212
0.0748882
0.0632235
0.017368
0.02958
0.0459349
0.032269
0.0330364
0.0320018
0.0333131
0.0455398
0.029284
0.0175088
0.00620776
0.00979451
0.000841584
0.00786537
0.00912422
0.00741194
0.0094472
0.00103763
0.010983
0.00628267
0.00271814
0.00329088
0.000465757
0.000966872
0.000999226
0.00065754
0.000856794
0.000593897
0.00365348
0.0027512
0.00138992
0.00110516
0.000100356
5.1217e-05
5.16479e-05
6.23173e-05
0.000124289
0.000298903
0.0012085
0.00140683
0.000798638
0.00049187
3.47453e-05
2.36601e-05
1.49859e-05
1.21438e-05
1.56521e-05
5.53652e-05
0.000519067
0.000808263
0.000502224
0.000214098
1.25338e-05
2.93758e-06
2.45274e-06
3.61118e-06
8.34411e-06
2.05805e-05
0.000252403
0.000509248
0.000340528
0.000142521
7.15837e-06
1.15146e-06
2.0176e-06
1.17959e-06
1.17835e-06
5.76684e-06
0.000109691
0.000345027
0.000241297
8.03404e-05
3.14144e-06
4.12967e-07
5.90199e-07
2.84227e-07
2.64923e-07
4.42111e-06
8.64588e-05
0.000245645
0.000180193
4.89932e-05
2.68292e-06
2.17908e-07
2.48353e-07
1.63232e-07
1.02008e-07
1.61167e-06
5.39925e-05
0.000182881
0.000138787
2.44971e-05
7.94284e-07
1.87325e-07
1.26299e-07
7.0047e-08
5.51276e-08
8.71015e-07
3.36647e-05
0.000141557
0.000110384
1.46904e-05
2.62348e-07
1.45047e-07
8.1515e-08
4.22473e-08
6.97375e-08
4.09177e-07
1.78523e-05
0.000112828
8.97588e-05
9.3802e-06
1.80667e-07
9.50425e-08
4.85636e-08
3.3824e-08
7.21247e-08
2.54399e-07
1.10273e-05
9.19944e-05
7.44111e-05
8.291e-06
1.78489e-07
9.05837e-08
3.99341e-08
2.88698e-08
3.64475e-08
1.96254e-07
8.34884e-06
7.66033e-05
6.26897e-05
7.87465e-06
1.95801e-07
5.55545e-08
7.67399e-08
4.47064e-08
6.60038e-08
1.70436e-07
6.76312e-06
6.51594e-05
5.35293e-05
7.45496e-06
2.43981e-07
1.07043e-07
6.89941e-08
5.75556e-08
9.62195e-08
1.52921e-07
6.05516e-06
5.6156e-05
4.61708e-05
7.23772e-06
2.91935e-07
1.52165e-07
7.81712e-08
8.61852e-08
1.36361e-07
1.49739e-07
5.35901e-06
4.92674e-05
4.01337e-05
7.11694e-06
4.02387e-07
1.65616e-07
8.67849e-08
9.96003e-08
1.34937e-07
1.46818e-07
4.83836e-06
4.35081e-05
3.50521e-05
7.29143e-06
4.44953e-07
1.50996e-07
1.05021e-07
1.00743e-07
1.5058e-07
1.34986e-07
4.33901e-06
3.91097e-05
3.07066e-05
7.52969e-06
5.46502e-07
1.82417e-07
1.18632e-07
1.12608e-07
1.54673e-07
1.5383e-07
3.84322e-06
3.50782e-05
2.68751e-05
7.93492e-06
7.31722e-07
1.80573e-07
1.25395e-07
1.15553e-07
1.58994e-07
1.56033e-07
3.37687e-06
3.21196e-05
2.34434e-05
8.73066e-06
9.35863e-07
2.01341e-07
1.41779e-07
1.16355e-07
1.57699e-07
1.49973e-07
2.95372e-06
2.90292e-05
2.02505e-05
9.38723e-06
1.33858e-06
2.53672e-07
1.59206e-07
1.25412e-07
1.80359e-07
1.5268e-07
2.53731e-06
2.69412e-05
1.72688e-05
1.05069e-05
1.73432e-06
3.49507e-07
1.96085e-07
1.44335e-07
1.79698e-07
1.66897e-07
2.18174e-06
2.43116e-05
1.44103e-05
1.17702e-05
2.52167e-06
5.06684e-07
2.36254e-07
1.76924e-07
1.96551e-07
1.85918e-07
1.81363e-06
2.26833e-05
1.16563e-05
1.25094e-05
3.92054e-06
8.06583e-07
3.32843e-07
2.25371e-07
2.33102e-07
2.23998e-07
1.54808e-06
2.01139e-05
8.96046e-06
1.35172e-05
6.12953e-06
1.37975e-06
4.84178e-07
3.13068e-07
2.95414e-07
2.80148e-07
1.24514e-06
1.81922e-05
6.53886e-06
1.51224e-05
8.66561e-06
2.52995e-06
8.69358e-07
4.49233e-07
4.0205e-07
3.96068e-07
1.26012e-06
1.51641e-05
5.02776e-06
1.71208e-05
1.27911e-05
4.66843e-06
1.74422e-06
8.27745e-07
6.08325e-07
5.87823e-07
1.55117e-06
1.23065e-05
0.310531
0.93954
0.949612
0.949014
0.948906
0.948897
0.949046
0.949644
0.940038
0.310964
0.0623029
0.0750479
0.0980107
0.0970745
0.0960533
0.0962726
0.0962304
0.0970609
0.0751015
0.062781
0.0171295
0.0277679
0.0339134
0.0307582
0.0291677
0.0299827
0.0296814
0.0317489
0.0295568
0.0172737
0.00610165
0.0092569
0.00926102
0.0137432
0.0110627
0.0113336
0.0104789
0.00984517
0.0103056
0.00616894
0.00266809
0.00315462
0.00115337
0.00472374
0.00813604
0.00840627
0.00956718
0.000909114
0.00328252
0.00269708
0.00136493
0.000928398
3.97042e-05
0.00519459
6.5518e-05
0.000125782
2.0056e-05
0.000200121
0.00104464
0.00137949
0.000784364
0.000398733
2.04602e-05
6.021e-05
1.914e-06
5.65807e-06
1.20147e-06
4.82348e-05
0.000427981
0.000793016
0.000493035
0.000175189
3.14161e-06
9.51194e-06
1.87747e-08
6.59112e-08
1.42447e-08
1.115e-05
0.000209231
0.000499071
0.000332567
0.000125647
7.27495e-07
2.1079e-06
1.06779e-08
1.98078e-09
1.94714e-09
4.95103e-06
9.37234e-05
0.000337638
0.000236087
7.82593e-05
4.61083e-07
2.20815e-08
2.96602e-10
2.27891e-10
1.43991e-09
6.36457e-06
7.82861e-05
0.000242943
0.000176064
5.22015e-05
2.90076e-07
1.87856e-09
1.92908e-10
1.63753e-10
1.38428e-09
2.79847e-06
5.25099e-05
0.00018092
0.000136351
3.10957e-05
2.49815e-07
1.82599e-09
4.4568e-10
1.53814e-10
8.58307e-10
1.45793e-06
3.42212e-05
0.000140516
0.000108693
1.8464e-05
1.51268e-07
1.31907e-09
3.92244e-10
1.09303e-10
5.1351e-10
1.04559e-06
2.07346e-05
0.000112422
8.84505e-05
1.35123e-05
1.15032e-07
2.47189e-09
5.25103e-10
2.32157e-10
5.45834e-10
7.71497e-07
1.43773e-05
9.21582e-05
7.33728e-05
1.06661e-05
7.58108e-08
1.76907e-09
5.07027e-10
1.84856e-10
4.32123e-10
4.50655e-07
1.07802e-05
7.7152e-05
6.18016e-05
9.72741e-06
1.72773e-07
1.39344e-09
3.64468e-10
1.60692e-10
3.21466e-10
2.23806e-07
8.62278e-06
6.57646e-05
5.27534e-05
9.1626e-06
2.15929e-07
3.00102e-09
2.94685e-10
2.42784e-10
1.27585e-10
1.5604e-07
7.27864e-06
5.68082e-05
4.54892e-05
8.76027e-06
2.83704e-07
6.57058e-09
4.24518e-10
3.08997e-10
7.16223e-10
1.14452e-07
6.34957e-06
4.99471e-05
3.95186e-05
8.60786e-06
3.68988e-07
1.14673e-08
7.24618e-10
4.22008e-10
1.01942e-09
8.73862e-08
5.51827e-06
4.41473e-05
3.45199e-05
8.42337e-06
4.65569e-07
1.78847e-08
1.06531e-09
7.42045e-10
1.42508e-09
7.45135e-08
4.78277e-06
3.97441e-05
3.02297e-05
8.48656e-06
5.88982e-07
2.74474e-08
1.92824e-09
9.29322e-10
1.59119e-09
6.45228e-08
4.10652e-06
3.56636e-05
2.64667e-05
8.58524e-06
7.66189e-07
4.38315e-08
3.29161e-09
1.1223e-09
1.91401e-09
5.73024e-08
3.58073e-06
3.27311e-05
2.30884e-05
8.83708e-06
9.36813e-07
6.52999e-08
6.14766e-09
1.50455e-09
2.11279e-09
5.03538e-08
3.05617e-06
2.95926e-05
1.99743e-05
9.30511e-06
1.24401e-06
1.09877e-07
8.50053e-09
1.9044e-09
2.31707e-09
4.35466e-08
2.649e-06
2.75625e-05
1.70578e-05
9.89505e-06
1.56521e-06
1.69297e-07
2.54479e-08
4.9727e-09
3.7187e-09
3.65651e-08
2.1881e-06
2.4875e-05
1.43343e-05
1.10972e-05
2.10993e-06
2.88472e-07
3.36582e-08
6.17042e-09
3.86041e-09
3.05202e-08
1.85329e-06
2.32477e-05
1.17417e-05
1.15669e-05
3.33132e-06
4.57943e-07
8.34127e-08
1.7478e-08
8.34999e-09
2.43e-08
1.42408e-06
2.06714e-05
9.29716e-06
1.22091e-05
4.97695e-06
9.24081e-07
1.4203e-07
2.57998e-08
9.0693e-09
2.25778e-08
1.18245e-06
1.85617e-05
7.03859e-06
1.30471e-05
6.82579e-06
1.50785e-06
3.24686e-07
7.53804e-08
2.82319e-08
2.26033e-08
8.21062e-07
1.55262e-05
5.0949e-06
1.40314e-05
9.12282e-06
2.74789e-06
6.46954e-07
1.58871e-07
4.76948e-08
3.96226e-08
9.06584e-07
1.14846e-05
0.310457
0.939365
0.949514
0.948893
0.948759
0.948752
0.948903
0.949522
0.93987
0.310891
0.0621682
0.0749195
0.0969043
0.0964032
0.0960356
0.0961787
0.0960954
0.0965516
0.0749139
0.0626452
0.0170444
0.0276051
0.0309078
0.0286977
0.0289457
0.0297063
0.0297937
0.0314342
0.0298222
0.0171874
0.00605543
0.00923293
0.00862939
0.0145047
0.0124841
0.0124315
0.0104698
0.00800735
0.00936721
0.00611769
0.00264303
0.00293808
0.00112115
0.00111427
0.00526716
0.00614689
0.00974537
0.000564528
0.00300267
0.00266943
0.00134829
0.00107669
6.6448e-05
4.31301e-05
0.00305781
0.00147465
0.000235076
0.000205409
0.000867457
0.00136333
0.000776981
0.000374777
3.09936e-05
3.63604e-08
1.46475e-08
1.58713e-06
7.56339e-06
3.15587e-05
0.000348199
0.000782643
0.000486826
0.000186207
4.34843e-06
2.83506e-09
2.26945e-11
2.61709e-07
5.32621e-07
1.44336e-05
0.000172683
0.000492063
0.000328627
9.81622e-05
1.06676e-06
5.2284e-10
1.17533e-11
8.16913e-11
1.47797e-07
5.77749e-06
7.9488e-05
0.000332652
0.000234965
6.08858e-05
3.64165e-07
7.09856e-10
2.57252e-12
6.39207e-12
1.15251e-07
3.59735e-06
6.72731e-05
0.000239676
0.00017533
3.2859e-05
2.27716e-07
1.00102e-09
6.80522e-13
5.63278e-12
2.34673e-08
1.7371e-06
4.54969e-05
0.000178249
0.000135403
2.04435e-05
1.86273e-07
8.88112e-10
5.97548e-12
2.33623e-12
1.28754e-08
9.84503e-07
2.96893e-05
0.000138691
0.000107554
1.39068e-05
1.45791e-07
9.61307e-10
1.21022e-11
2.07403e-12
5.14162e-09
4.68839e-07
1.79419e-05
0.000111114
8.74833e-05
1.12321e-05
1.12262e-07
1.011e-09
1.53235e-11
1.71482e-12
3.35558e-09
2.15168e-07
1.2442e-05
9.10209e-05
7.25455e-05
1.00324e-05
1.36355e-07
1.38605e-09
1.79497e-11
8.36534e-13
2.50761e-09
2.02167e-07
9.38725e-06
7.61364e-05
6.11444e-05
9.1485e-06
1.5458e-07
2.03094e-09
2.28155e-11
1.82996e-12
1.37285e-09
1.66789e-07
7.62913e-06
6.48577e-05
5.22189e-05
8.571e-06
2.38505e-07
3.4541e-09
4.15032e-11
1.16841e-12
7.38154e-10
1.42945e-07
6.48052e-06
5.60091e-05
4.50504e-05
8.16723e-06
3.15794e-07
8.18125e-09
1.11805e-10
1.88296e-12
4.0024e-10
1.23386e-07
5.60529e-06
4.91981e-05
3.91717e-05
8.02514e-06
3.70112e-07
1.04426e-08
2.22737e-10
4.95534e-12
4.43061e-10
1.08599e-07
4.93366e-06
4.34824e-05
3.42368e-05
7.86632e-06
4.47349e-07
1.66949e-08
5.49617e-10
1.34596e-11
3.09898e-10
9.55606e-08
4.31552e-06
3.91036e-05
3.00118e-05
8.04808e-06
5.44165e-07
2.37205e-08
1.10818e-09
2.49106e-11
3.00984e-10
7.48666e-08
3.75494e-06
3.50919e-05
2.62916e-05
8.16566e-06
7.13945e-07
4.02406e-08
1.40145e-09
9.53658e-11
2.74668e-10
5.80802e-08
3.28985e-06
3.21662e-05
2.29596e-05
8.50301e-06
8.82921e-07
5.94687e-08
5.9081e-09
2.64953e-10
2.65354e-10
4.73984e-08
2.81048e-06
2.90631e-05
1.98853e-05
9.0675e-06
1.18268e-06
1.0245e-07
7.06504e-09
5.11184e-10
2.29383e-10
3.87684e-08
2.43559e-06
2.70458e-05
1.70033e-05
9.72246e-06
1.53514e-06
1.58995e-07
2.25219e-08
1.7104e-09
3.56054e-10
3.11259e-08
1.99884e-06
2.43509e-05
1.42761e-05
1.09416e-05
2.00435e-06
2.79589e-07
2.99499e-08
2.22567e-09
5.00397e-10
2.38465e-08
1.68768e-06
2.27477e-05
1.16694e-05
1.14712e-05
3.29072e-06
4.48068e-07
7.84273e-08
1.42163e-08
1.31646e-09
1.806e-08
1.28732e-06
2.01167e-05
9.16257e-06
1.21085e-05
4.85957e-06
8.86938e-07
1.30496e-07
1.98743e-08
3.9976e-10
1.31043e-08
1.05911e-06
1.82503e-05
6.84379e-06
1.29672e-05
6.72764e-06
1.45482e-06
3.04528e-07
7.12026e-08
1.74981e-08
1.13508e-08
7.18718e-07
1.45425e-05
4.75152e-06
1.39643e-05
9.00554e-06
2.67469e-06
6.15186e-07
1.47167e-07
3.49153e-08
2.43986e-08
7.56846e-07
1.22285e-05
0.310458
0.939363
0.949505
0.948902
0.948753
0.948754
0.948897
0.949516
0.939869
0.31089
0.0621681
0.0749328
0.097101
0.0961167
0.0961581
0.096138
0.096308
0.0966986
0.0748152
0.0626445
0.0170445
0.0276249
0.031998
0.0291
0.0284867
0.0285316
0.0286041
0.0312321
0.0297882
0.0171867
0.00605565
0.00913664
0.0077862
0.0120016
0.0149931
0.0149783
0.0148741
0.00970474
0.00928934
0.00611666
0.00264233
0.00310833
0.000962036
0.00625552
4.24491e-05
4.17969e-05
0.000177451
0.00152569
0.00296875
0.00266878
0.00134984
0.000918861
3.25311e-05
0.000708822
3.04611e-08
7.227e-08
3.85972e-07
6.13447e-05
0.000856043
0.00136311
0.000774703
0.000394835
1.69854e-05
6.19895e-06
2.82906e-10
5.95666e-09
3.34626e-09
9.71566e-06
0.000345627
0.000782495
0.00048611
0.000172917
2.72455e-06
1.7157e-08
9.80444e-12
2.11265e-11
1.51743e-09
3.25694e-06
0.000171412
0.000491805
0.000328372
0.000124941
7.10085e-07
9.71173e-10
6.38077e-12
1.64826e-10
2.58499e-09
1.57549e-06
7.93861e-05
0.000332767
0.000232134
7.79499e-05
4.82936e-07
1.39464e-09
5.58537e-12
3.67209e-11
6.25541e-10
7.41698e-07
6.62112e-05
0.000239345
0.000174142
5.13721e-05
3.22787e-07
1.20785e-09
8.49228e-12
2.83488e-11
1.29409e-10
3.33716e-07
4.5466e-05
0.000178677
0.000134906
2.90609e-05
2.48273e-07
1.35007e-09
1.37513e-11
6.93578e-12
1.50951e-10
2.16856e-07
3.04438e-05
0.000138927
0.000107403
1.68323e-05
1.5976e-07
1.12454e-09
3.51866e-13
2.65092e-11
1.93659e-10
1.3248e-07
1.82898e-05
0.000111206
8.73654e-05
1.1853e-05
1.57222e-07
7.4433e-10
8.80387e-13
8.26597e-12
1.52153e-10
8.65398e-08
1.25028e-05
9.10667e-05
7.25088e-05
9.81243e-06
1.35303e-07
2.03354e-09
4.18421e-12
1.17674e-11
1.44085e-10
8.33509e-08
9.4102e-06
7.61436e-05
6.11111e-05
9.28116e-06
1.16424e-07
2.5373e-09
2.08842e-11
3.37203e-12
1.28747e-10
7.58438e-08
7.63143e-06
6.48625e-05
5.22046e-05
9.02305e-06
1.2891e-07
2.7336e-09
5.35913e-11
5.91508e-12
1.84285e-10
6.72003e-08
6.55226e-06
5.59964e-05
4.50563e-05
8.41957e-06
1.91365e-07
4.07444e-09
5.87746e-11
4.51022e-12
1.85857e-10
6.01809e-08
5.74591e-06
4.91982e-05
3.91865e-05
8.13898e-06
2.79425e-07
6.8943e-09
1.52367e-10
4.07127e-12
1.79213e-10
5.764e-08
5.00905e-06
4.34675e-05
3.42539e-05
8.02583e-06
3.9005e-07
1.39869e-08
3.43243e-10
1.1988e-11
1.84294e-10
5.43888e-08
4.34086e-06
3.90897e-05
3.00371e-05
8.19004e-06
5.10751e-07
2.58266e-08
3.16588e-10
2.01428e-11
1.8198e-10
5.09578e-08
3.74927e-06
3.50773e-05
2.63214e-05
8.29713e-06
6.79567e-07
3.614e-08
2.81457e-09
2.8804e-11
1.87166e-10
4.71189e-08
3.26104e-06
3.21245e-05
2.29816e-05
8.56234e-06
8.70462e-07
6.09184e-08
2.9947e-09
4.39095e-10
2.16301e-10
4.17744e-08
2.80219e-06
2.90818e-05
1.99045e-05
9.06697e-06
1.17431e-06
9.57943e-08
1.18354e-08
1.64093e-10
1.63662e-10
3.56949e-08
2.43442e-06
2.702e-05
1.70208e-05
9.7164e-06
1.52626e-06
1.67168e-07
1.42598e-08
2.21639e-09
4.28941e-10
2.98642e-08
2.01891e-06
2.44283e-05
1.43016e-05
1.09581e-05
2.01732e-06
2.51895e-07
4.2676e-08
2.945e-09
1.54807e-10
2.30366e-08
1.72489e-06
2.28056e-05
1.17007e-05
1.14981e-05
3.31276e-06
4.95957e-07
5.89487e-08
1.22344e-08
2.23356e-09
1.8978e-08
1.32761e-06
2.03016e-05
9.1981e-06
1.21583e-05
4.91662e-06
8.7891e-07
1.64165e-07
2.00911e-08
4.6611e-10
1.09143e-08
1.09821e-06
1.82806e-05
6.87584e-06
1.30188e-05
6.7865e-06
1.50861e-06
2.76048e-07
6.52608e-08
1.63206e-08
1.54041e-08
7.45937e-07
1.47715e-05
4.77418e-06
1.40242e-05
9.07009e-06
2.68818e-06
6.63586e-07
1.46087e-07
3.46363e-08
1.71537e-08
7.69507e-07
1.23609e-05
0.310533
0.939551
0.949635
0.949046
0.948896
0.948909
0.949051
0.949651
0.940036
0.310962
0.0623027
0.0745894
0.0973585
0.0962118
0.096286
0.0959069
0.0960737
0.0968456
0.0749654
0.0627801
0.0171349
0.0294126
0.0324296
0.0282182
0.0284823
0.0288454
0.0295356
0.0311968
0.0297769
0.0172715
0.00610215
0.00992269
0.00847871
0.0137239
0.0147744
0.011793
0.0103609
0.010203
0.00945584
0.00616348
0.00266724
0.00321554
0.000904352
0.00187816
0.000238019
0.0062231
0.00954065
0.00102508
0.00300875
0.00269399
0.00136486
0.000942571
5.24341e-05
0.000628981
3.49539e-05
0.000564614
7.47825e-05
0.000239079
0.0009662
0.00137813
0.000784337
0.000403462
1.7553e-05
8.54135e-06
2.3336e-06
4.72454e-05
1.68414e-05
6.85462e-05
0.000398405
0.000792552
0.000492847
0.000179806
4.17589e-06
2.18564e-07
2.9111e-07
2.79903e-06
1.64669e-06
1.42427e-05
0.000196678
0.000498573
0.00033308
0.000123746
3.31644e-06
1.55197e-07
5.85855e-08
7.29056e-07
3.80577e-07
7.93664e-06
8.77184e-05
0.000337894
0.000238082
7.18925e-05
1.24639e-06
1.22109e-08
1.92892e-08
2.85922e-07
6.62652e-08
3.97242e-06
7.37844e-05
0.000242339
0.000177285
4.60227e-05
6.41431e-07
3.24267e-09
9.58286e-09
1.51392e-07
5.78236e-08
2.7296e-06
5.0631e-05
0.000180939
0.000137008
2.63441e-05
3.4967e-07
2.1621e-09
3.70339e-09
5.92462e-08
1.0638e-08
1.49399e-06
3.38554e-05
0.000140494
0.000108879
1.62201e-05
2.5404e-07
2.0813e-09
3.61143e-09
3.857e-08
7.65283e-09
8.3366e-07
2.0279e-05
0.000112496
8.84726e-05
1.22622e-05
2.4453e-07
2.11424e-09
1.82669e-09
2.04907e-08
4.50582e-09
4.1422e-07
1.37416e-05
9.22499e-05
7.33644e-05
1.0608e-05
2.29554e-07
2.44157e-09
1.62839e-09
9.48285e-09
3.81157e-09
3.63251e-07
9.93138e-06
7.71955e-05
6.17726e-05
9.98537e-06
2.65659e-07
3.97248e-09
1.21855e-09
4.02102e-09
2.30156e-09
2.79777e-07
7.89511e-06
6.57851e-05
5.27328e-05
9.49554e-06
3.18537e-07
5.76158e-09
1.24307e-09
3.72229e-09
2.19856e-09
1.72111e-07
6.78374e-06
5.68305e-05
4.54812e-05
8.91404e-06
3.69771e-07
9.0831e-09
1.27167e-09
2.45009e-09
1.77549e-09
1.38193e-07
5.94781e-06
4.99368e-05
3.95394e-05
8.62533e-06
4.4537e-07
1.29366e-08
1.65015e-09
1.36781e-09
1.63154e-09
1.03564e-07
5.15977e-06
4.41566e-05
3.45404e-05
8.46734e-06
5.30532e-07
1.94696e-08
1.33238e-09
1.65971e-09
1.64753e-09
7.67925e-08
4.45892e-06
3.96995e-05
3.02631e-05
8.64643e-06
6.30726e-07
2.9081e-08
3.6723e-09
1.28011e-09
1.73178e-09
6.28073e-08
3.85189e-06
3.56573e-05
2.64954e-05
8.75154e-06
8.20032e-07
4.89797e-08
3.74477e-09
1.95218e-09
1.95993e-09
5.32505e-08
3.3501e-06
3.26314e-05
2.31264e-05
9.11814e-06
1.00299e-06
7.11586e-08
9.89707e-09
1.70363e-09
2.0883e-09
4.54255e-08
2.87438e-06
2.95689e-05
2.00208e-05
9.60782e-06
1.34896e-06
1.21073e-07
1.09744e-08
3.69173e-09
2.87738e-09
3.87793e-08
2.48187e-06
2.74133e-05
1.713e-05
1.03794e-05
1.70077e-06
1.93617e-07
2.77969e-08
3.94951e-09
3.01338e-09
3.20883e-08
2.05908e-06
2.47964e-05
1.44154e-05
1.14998e-05
2.30369e-06
3.13159e-07
3.70983e-08
9.1949e-09
5.71106e-09
2.67459e-08
1.72764e-06
2.31216e-05
1.18237e-05
1.1897e-05
3.66749e-06
5.28798e-07
9.17761e-08
1.25625e-08
5.71705e-09
2.23894e-08
1.34154e-06
2.03969e-05
9.37447e-06
1.25283e-05
5.28685e-06
1.02552e-06
1.62083e-07
3.63563e-08
1.6369e-08
2.17722e-08
1.08279e-06
1.87174e-05
7.09738e-06
1.32948e-05
7.09976e-06
1.62716e-06
3.49433e-07
6.48861e-08
2.10925e-08
2.30923e-08
7.64714e-07
1.49007e-05
5.12864e-06
1.42235e-05
9.32663e-06
2.88872e-06
6.97004e-07
1.85929e-07
6.1544e-08
4.4355e-08
7.86145e-07
1.29101e-05
0.310822
0.939963
0.950105
0.949633
0.949509
0.949505
0.949639
0.95012
0.940445
0.311241
0.0627565
0.0744084
0.100573
0.0972802
0.0968454
0.0969644
0.0971558
0.100131
0.0746425
0.063232
0.017358
0.0283098
0.0442791
0.0323696
0.0315542
0.0317353
0.0322171
0.0441852
0.0295385
0.0175044
0.00620813
0.00980616
0.00412815
0.01019
0.00989819
0.0104941
0.0101767
0.00365991
0.00972794
0.00627301
0.00271803
0.00332011
0.000978556
0.000984004
0.00095513
0.000996056
0.00102856
0.000944963
0.00318003
0.00274419
0.00138819
0.0012463
7.32052e-05
0.000244865
0.000138105
0.000287716
0.000240686
0.000272825
0.00113905
0.0014025
0.000799399
0.000533049
5.51134e-06
9.87903e-05
5.31148e-05
5.01671e-05
7.74891e-05
2.51903e-05
0.00047633
0.000807414
0.000503741
0.000251423
6.24275e-07
2.81091e-05
1.32748e-05
1.80207e-05
1.87939e-05
6.94467e-06
0.000228482
0.000508947
0.000338177
0.000113047
6.01892e-07
1.54974e-05
7.16071e-06
7.88082e-06
1.06416e-05
2.73422e-06
9.88705e-05
0.000344637
0.000241496
8.80242e-05
6.14556e-07
9.02211e-06
4.17973e-06
5.12941e-06
3.49213e-06
1.89417e-06
7.63796e-05
0.000245079
0.000180032
5.66277e-05
3.37942e-07
5.3081e-06
2.38934e-06
2.67904e-06
2.02842e-06
8.08377e-07
4.80894e-05
0.000182913
0.000139099
3.59986e-05
2.3468e-07
2.35043e-06
1.27331e-06
1.43732e-06
9.77555e-07
4.85304e-07
3.08266e-05
0.000141704
0.000110517
2.05764e-05
1.52233e-07
1.75831e-06
8.90342e-07
9.66123e-07
5.81334e-07
3.28563e-07
1.7813e-05
0.000112838
8.98606e-05
1.38541e-05
1.27607e-07
1.11828e-06
5.9083e-07
6.71018e-07
3.6525e-07
2.6035e-07
1.20725e-05
9.20584e-05
7.4491e-05
1.03526e-05
1.82884e-07
8.30272e-07
4.4508e-07
5.06485e-07
3.23281e-07
1.96118e-07
9.03285e-06
7.67609e-05
6.27281e-05
8.51384e-06
2.1829e-07
6.24125e-07
3.59942e-07
4.01156e-07
2.40945e-07
1.92615e-07
7.61839e-06
6.52459e-05
5.35236e-05
7.6471e-06
2.62393e-07
5.02676e-07
3.10407e-07
3.31208e-07
2.02802e-07
1.87042e-07
6.52163e-06
5.62697e-05
4.61591e-05
7.44289e-06
3.13326e-07
3.28599e-07
2.31724e-07
2.28223e-07
1.86613e-07
1.82966e-07
5.79044e-06
4.93884e-05
4.01224e-05
7.31466e-06
3.64833e-07
2.84166e-07
1.80657e-07
1.63338e-07
1.72881e-07
1.70654e-07
5.29494e-06
4.36719e-05
3.50481e-05
7.60261e-06
4.68691e-07
2.45422e-07
1.6986e-07
1.37476e-07
1.69486e-07
1.65329e-07
4.78633e-06
3.92814e-05
3.0694e-05
7.70534e-06
5.62041e-07
2.14809e-07
1.59787e-07
1.41466e-07
1.69383e-07
1.66069e-07
4.27871e-06
3.52929e-05
2.68469e-05
7.98081e-06
7.47608e-07
2.17926e-07
1.78644e-07
1.39467e-07
1.71999e-07
1.6894e-07
3.79973e-06
3.23533e-05
2.33918e-05
8.5926e-06
9.24209e-07
2.37979e-07
1.7905e-07
1.47207e-07
1.78239e-07
1.75019e-07
3.3296e-06
2.93011e-05
2.01842e-05
9.20183e-06
1.29591e-06
2.81764e-07
2.02366e-07
1.54751e-07
1.8474e-07
1.85027e-07
2.87835e-06
2.72462e-05
1.71809e-05
1.02084e-05
1.6519e-06
3.65068e-07
2.19916e-07
1.76535e-07
2.03013e-07
2.00015e-07
2.47808e-06
2.46534e-05
1.43202e-05
1.15357e-05
2.40501e-06
4.97214e-07
2.71335e-07
2.04995e-07
2.22074e-07
2.30802e-07
2.05307e-06
2.30354e-05
1.15534e-05
1.22625e-05
3.73983e-06
8.06943e-07
3.4765e-07
2.54836e-07
2.71941e-07
2.64557e-07
1.76687e-06
2.0517e-05
8.86778e-06
1.33106e-05
5.90957e-06
1.28501e-06
5.46491e-07
3.48556e-07
3.31358e-07
3.41957e-07
1.39798e-06
1.85612e-05
6.46777e-06
1.48594e-05
8.32476e-06
2.4279e-06
8.13964e-07
4.9486e-07
4.71884e-07
4.63614e-07
1.44617e-06
1.54708e-05
4.97013e-06
1.68787e-05
1.23733e-05
4.39637e-06
1.70897e-06
8.65129e-07
6.85266e-07
6.85904e-07
1.81088e-06
1.26077e-05
0.311877
0.90723
0.940449
0.940032
0.939857
0.939854
0.940027
0.940442
0.907646
0.312265
0.0637158
0.0777811
0.0747936
0.0749233
0.0748085
0.0748064
0.0748995
0.0745519
0.0776897
0.0641626
0.017707
0.0295539
0.0296758
0.0295254
0.029789
0.0297589
0.0295466
0.0295194
0.0296039
0.0178651
0.00634885
0.0128612
0.00992343
0.0102143
0.00932433
0.00932193
0.0099243
0.00967949
0.0129645
0.00643285
0.00276694
0.00569744
0.00326581
0.00310814
0.00300312
0.00285796
0.00323106
0.00318408
0.00576107
0.0028012
0.00139368
0.00258539
0.00115934
0.00110484
0.000866143
0.000997402
0.000961612
0.00112
0.0026348
0.0014202
0.000790789
0.00121019
0.000516281
0.000399594
0.000364151
0.000380554
0.000412165
0.000489451
0.00113784
0.000807186
0.000494069
0.000587604
0.000223905
0.000188739
0.000162907
0.000163984
0.000182439
0.000210559
0.000726586
0.000507757
0.00033306
0.000290101
0.000150773
9.2158e-05
0.00011183
0.000112424
0.000124903
0.00013205
0.000419576
0.000335474
0.000235574
0.000169435
8.59935e-05
5.25528e-05
6.36929e-05
6.85883e-05
7.10072e-05
7.40354e-05
0.000247863
0.000238447
0.000174511
0.000105901
5.17417e-05
3.42676e-05
4.35994e-05
4.47577e-05
4.49068e-05
4.45451e-05
0.000126565
0.000176908
0.000133526
6.30773e-05
2.79143e-05
1.68625e-05
2.87888e-05
2.60723e-05
2.48425e-05
2.1988e-05
6.80721e-05
0.000136683
0.000105198
4.20313e-05
1.63548e-05
1.12425e-05