/*--------------------------------*- C++ -*----------------------------------*\
| =========                 |                                                 |
| \\      /  F ield         | OpenFOAM: The Open Source CFD Toolbox           |
|  \\    /   O peration     | Version:  4.1                                   |
|   \\  /    A nd           | Web:      www.OpenFOAM.org                      |
|    \\/     M anipulation  |                                                 |
\*---------------------------------------------------------------------------*/
FoamFile
{
    version     2.0;
    format      ascii;
    class       volScalarField;
    location    "600";
    object      k;
}
// * * * * * * * * * * * * * * * * * * * * * * * * * * * * * * * * * * * * * //

dimensions      [0 2 -2 0 0 0 0];

internalField   nonuniform List<scalar> 
12000
(
0.116756
0.114864
0.114569
0.114495
0.114477
0.114477
0.114496
0.114566
0.114825
0.116714
0.0404359
0.0398185
0.0394249
0.0392399
0.0391835
0.0391837
0.0392409
0.0394313
0.0398317
0.0404639
0.0169228
0.0169633
0.0167469
0.0165974
0.0165423
0.0165427
0.0165973
0.0167409
0.0169644
0.0169312
0.00838643
0.00856246
0.00843504
0.00833936
0.00829854
0.00829792
0.00834008
0.00843734
0.00856567
0.00839051
0.00476299
0.0049154
0.00486616
0.00480589
0.00477485
0.00477555
0.00480554
0.00486564
0.00491528
0.00476529
0.00300851
0.00312045
0.00311134
0.00307285
0.00305219
0.00305153
0.00307641
0.00311224
0.0031262
0.00301232
0.00206083
0.00214874
0.00215349
0.00213099
0.00211078
0.0021125
0.0021323
0.00215491
0.00214504
0.00206477
0.00149947
0.00156787
0.00158482
0.00156315
0.00155068
0.00155442
0.00156849
0.00158698
0.00156865
0.00150538
0.00114366
0.00120284
0.00121852
0.00120343
0.0011981
0.00119472
0.00120622
0.00122132
0.00120619
0.00115096
0.000904678
0.000955216
0.000972535
0.000960381
0.000953642
0.000954609
0.000965659
0.000973576
0.000958775
0.000913151
0.000736892
0.000781714
0.000797486
0.000791976
0.000786046
0.000787208
0.000795592
0.000801812
0.000786495
0.00074664
0.000614525
0.000654905
0.000672524
0.000667571
0.000663459
0.00066453
0.000671232
0.000677111
0.000659606
0.00062561
0.000522728
0.000560449
0.000579438
0.000574952
0.000570791
0.000571647
0.000577148
0.000582758
0.000565325
0.000535185
0.000451868
0.00048747
0.000504789
0.000502321
0.000498883
0.000499851
0.000504797
0.00050988
0.000492823
0.000465897
0.000395786
0.000430132
0.000446592
0.000445169
0.000442448
0.000443401
0.000447708
0.000452343
0.000436459
0.000411777
0.000350377
0.000384022
0.000399918
0.000398945
0.000397001
0.000398127
0.000402001
0.000406215
0.000391471
0.000368689
0.000312805
0.000346137
0.000361868
0.000361294
0.000359844
0.000361056
0.00036473
0.000368828
0.000355244
0.000334067
0.000281034
0.000314512
0.000329997
0.000330005
0.000329214
0.000330707
0.00033414
0.000338124
0.000325547
0.000305776
0.000253526
0.0002875
0.000303089
0.000303647
0.000303463
0.000304993
0.000308408
0.000312842
0.000301364
0.000282818
0.00022903
0.000264
0.000279956
0.00028117
0.000281647
0.000283688
0.000287061
0.000291575
0.000281152
0.000263698
0.000206519
0.000242889
0.000259747
0.00026178
0.000262707
0.000264918
0.000268597
0.000273797
0.000264795
0.000248404
0.000184974
0.000223294
0.000241632
0.000244792
0.000246499
0.000249552
0.000253257
0.000258591
0.000250922
0.000235444
0.000163439
0.000204048
0.000225106
0.000229641
0.000231741
0.000235104
0.000239569
0.000245992
0.000240165
0.000225755
0.000140623
0.000184306
0.00020908
0.000215899
0.000219223
0.000223697
0.000228231
0.000234998
0.0002308
0.000217538
0.000115132
0.000162024
0.000193044
0.000202667
0.000206722
0.000211646
0.000217741
0.000226344
0.000224385
0.000212665
8.38015e-05
0.000136328
0.000174969
0.000189767
0.000196257
0.000202562
0.000208536
0.000218247
0.000218279
0.000208863
4.66025e-05
0.000103263
0.000153251
0.000174066
0.00018305
0.000191034
0.00019979
0.000212327
0.000215246
0.000208658
3.08588e-05
6.9224e-05
0.000123282
0.000155594
0.000171529
0.00018137
0.000189515
0.000204955
0.000212457
0.000211079
4.15467e-05
6.03608e-05
8.20691e-05
0.000113207
0.000146016
0.000167125
0.000180181
0.000197722
0.000212216
0.000212956
6.78416e-05
8.67373e-05
9.22446e-05
9.19252e-05
0.000105185
0.000125093
0.000154643
0.000184657
0.000206402
0.000226998
0.114864
0.0316268
0.0293434
0.029321
0.0293208
0.0293208
0.0293211
0.0293432
0.0316357
0.114907
0.0398171
0.0035098
0.00209084
0.00208192
0.00207681
0.00207652
0.00207804
0.002094
0.00350623
0.0399858
0.0169613
0.00181544
0.00108032
0.00105489
0.00105576
0.00105821
0.00105708
0.000963354
0.00180143
0.0170436
0.00856042
0.00145045
0.000534781
0.00053782
0.000555884
0.000543539
0.000540152
0.000574428
0.0014477
0.00862712
0.004913
0.00101797
0.000348993
0.00031791
0.00031735
0.000314572
0.000316974
0.000379583
0.00104706
0.00495377
0.003118
0.000760203
0.000221935
0.000220097
0.000197363
0.000207888
0.000206572
0.000232962
0.000742108
0.00315156
0.00214602
0.000551157
0.000160685
0.000134848
0.000160282
0.00014753
0.000120195
0.00017249
0.000590654
0.00216181
0.00156475
0.000443703
0.000107751
0.000129115
0.000126617
0.000110315
0.000115231
0.000109358
0.000481253
0.0015814
0.00119979
0.000367487
0.000100787
0.000130591
0.000104832
0.000112488
9.7467e-05
0.000109172
0.000355119
0.00121581
0.000951708
0.000274477
9.48927e-05
0.000115449
9.07705e-05
9.01718e-05
6.83596e-05
9.343e-05
0.000293041
0.00096602
0.000778025
0.000224709
8.75295e-05
9.81517e-05
7.14785e-05
6.07669e-05
5.06959e-05
8.02456e-05
0.000230335
0.000792247
0.000650814
0.000204665
7.00867e-05
8.884e-05
5.28752e-05
4.14081e-05
4.71597e-05
6.06126e-05
0.000196939
0.000664348
0.00055584
0.000195592
5.18428e-05
7.08655e-05
4.02335e-05
3.84171e-05
4.0616e-05
5.14723e-05
0.000182788
0.000569365
0.00048235
0.000191532
4.70413e-05
6.63011e-05
4.26302e-05
3.99111e-05
4.55141e-05
4.65118e-05
0.000172771
0.000496654
0.000424429
0.0001869
4.58943e-05
6.35611e-05
4.32795e-05
3.99104e-05
5.2455e-05
4.46342e-05
0.000163998
0.000440191
0.000377577
0.000181311
4.53285e-05
6.06713e-05
4.81052e-05
4.4576e-05
5.12542e-05
4.45638e-05
0.000153666
0.000395265
0.000338859
0.000175283
4.58343e-05
5.75888e-05
4.3402e-05
4.01387e-05
5.33686e-05
4.48629e-05
0.000145244
0.000358669
0.000306246
0.000170652
4.68261e-05
5.46086e-05
4.47393e-05
4.04432e-05
5.43495e-05
4.54391e-05
0.000136782
0.000328888
0.000278204
0.000166007
5.02381e-05
5.30205e-05
4.83169e-05
4.11803e-05
5.42881e-05
4.55453e-05
0.000129065
0.000303873
0.000253535
0.000164948
5.40183e-05
5.25669e-05
4.7675e-05
4.21962e-05
5.3676e-05
4.60248e-05
0.000120436
0.000283324
0.000231399
0.000165403
5.84739e-05
5.29182e-05
4.88914e-05
4.36171e-05
5.29987e-05
4.72428e-05
0.000112815
0.000265267
0.00021077
0.000166176
6.39206e-05
5.32222e-05
4.98154e-05
4.52531e-05
5.23725e-05
4.82684e-05
0.000104817
0.000250614
0.000191157
0.000169188
7.05278e-05
5.44033e-05
5.1844e-05
4.76702e-05
5.27874e-05
4.99968e-05
9.81802e-05
0.000236743
0.00017144
0.000170318
8.34739e-05
5.73055e-05
5.36283e-05
5.06131e-05
5.37678e-05
5.11568e-05
9.20003e-05
0.000226182
0.000151047
0.00017349
9.74956e-05
6.14821e-05
5.75511e-05
5.2728e-05
5.52432e-05
5.49665e-05
8.68078e-05
0.000214857
0.000128386
0.000179053
0.00011698
6.98637e-05
5.86343e-05
5.82379e-05
5.73078e-05
5.57549e-05
8.30562e-05
0.000207006
0.000103445
0.000191084
0.000138282
8.04027e-05
6.38232e-05
5.94954e-05
6.05538e-05
5.91265e-05
7.89091e-05
0.00019738
7.48931e-05
0.000204882
0.000169983
0.000102307
7.40504e-05
6.55686e-05
6.5338e-05
6.45497e-05
8.63649e-05
0.000187649
5.86478e-05
0.000229608
0.000208226
0.000132727
9.68142e-05
7.97774e-05
7.66033e-05
7.74166e-05
9.06035e-05
0.000180805
6.11849e-05
0.0002549
0.000261524
0.000196785
0.000129453
9.99946e-05
9.28902e-05
9.36154e-05
0.000133377
0.000175482
0.114569
0.029344
0.026665
0.0266495
0.0266479
0.0266481
0.0266494
0.026665
0.029347
0.114668
0.0394237
0.00209081
0.00120998
0.00116824
0.00116975
0.00116506
0.00117213
0.00120674
0.00209115
0.0396248
0.0167449
0.00108341
4.87666e-05
3.59844e-05
3.70393e-05
3.57115e-05
3.74374e-05
4.85479e-05
0.00107649
0.0168352
0.00843344
0.000537217
1.38348e-07
4.07321e-07
4.47735e-07
3.94768e-07
4.59336e-07
1.51497e-07
0.000577836
0.00850114
0.00486291
0.000361119
7.00291e-07
3.96041e-07
4.01386e-07
3.19734e-07
3.4584e-07
8.1926e-07
0.000333268
0.00490225
0.00310963
0.000218572
5.47282e-07
5.04736e-07
4.0382e-07
7.77446e-07
5.50574e-07
7.65624e-07
0.000201876
0.0031348
0.00214922
0.000174207
6.64979e-07
1.16469e-06
9.72453e-07
6.76221e-07
5.31226e-07
8.52221e-07
0.000159154
0.00216646
0.00157754
0.000132903
7.96931e-07
6.30716e-07
7.72068e-07
8.91941e-07
1.0669e-06
7.6004e-07
0.000132768
0.00159221
0.00121754
0.00011157
6.4962e-07
9.74702e-07
1.13086e-06
6.91516e-07
4.65005e-07
8.30522e-07
9.03444e-05
0.00122824
0.000967719
9.4055e-05
5.54187e-07
6.35784e-07
6.42914e-07
5.50119e-07
2.6726e-07
1.33421e-06
9.2461e-05
0.00097931
0.000796539
6.82975e-05
7.79375e-07
4.31791e-07
4.83167e-07
3.69018e-07
2.99496e-07
9.98597e-07
7.33553e-05
0.000804439
0.000669288
6.00542e-05
5.16996e-07
5.92241e-07
2.83347e-07
2.4559e-07
3.25387e-07
7.26244e-07
4.98785e-05
0.000678166
0.000574537
5.34346e-05
2.78565e-07
5.61544e-07
2.5573e-07
1.71056e-07
3.7425e-07
5.93046e-07
4.04725e-05
0.000582987
0.000500533
4.52347e-05
6.48582e-07
5.93066e-07
3.83567e-07
2.14595e-07
4.2184e-07
5.96585e-07
3.78769e-05
0.00050881
0.000441713
4.63099e-05
9.39696e-07
5.9647e-07
4.45877e-07
2.78923e-07
4.89495e-07
7.33428e-07
3.99253e-05
0.000450346
0.000394014
5.22651e-05
1.21732e-06
7.71659e-07
5.64599e-07
4.69075e-07
6.73469e-07
8.18457e-07
3.85508e-05
0.000404296
0.00035463
5.67941e-05
2.13434e-06
9.20676e-07
7.31424e-07
5.05655e-07
8.05801e-07
9.46903e-07
4.12693e-05
0.000366139
0.000321336
5.88631e-05
2.30262e-06
1.17385e-06
8.2698e-07
7.26865e-07
1.08598e-06
1.11612e-06
3.85041e-05
0.000335548
0.000292676
6.45615e-05
2.95372e-06
1.23696e-06
9.43382e-07
9.01288e-07
1.34065e-06
1.19885e-06
3.98742e-05
0.00030886
0.000267418
6.93528e-05
4.23418e-06
1.33183e-06
1.044e-06
1.12002e-06
1.56961e-06
1.55554e-06
3.98336e-05
0.000287676
0.000244832
7.88659e-05
5.74045e-06
1.51713e-06
1.20297e-06
1.21155e-06
1.86887e-06
1.67725e-06
3.8194e-05
0.000267551
0.000224017
8.52373e-05
8.67658e-06
1.83267e-06
1.36038e-06
1.2377e-06
1.88096e-06
1.67278e-06
3.57306e-05
0.000252287
0.000204516
9.678e-05
1.16151e-05
2.35131e-06
1.61932e-06
1.27697e-06
2.16643e-06
1.71428e-06
3.29903e-05
0.000235833
0.000185497
0.000104926
1.69003e-05
3.2145e-06
1.98673e-06
1.53076e-06
2.17332e-06
1.83636e-06
2.96413e-05
0.000224384
0.000166811
0.000121034
2.2544e-05
4.70235e-06
2.51073e-06
1.81959e-06
2.26062e-06
2.12922e-06
2.66646e-05
0.000209535
0.000147853
0.000132943
3.38794e-05
6.96007e-06
3.30766e-06
2.44276e-06
2.58578e-06
2.42875e-06
2.30122e-05
0.000200072
0.000128358
0.000142854
5.34853e-05
1.15076e-05
4.66273e-06
3.1345e-06
3.22507e-06
3.08956e-06
2.00517e-05
0.000184663
0.000107713
0.000155725
7.98336e-05
1.95748e-05
7.17112e-06
4.44635e-06
4.08266e-06
3.8162e-06
1.69951e-05
0.000172705
8.7307e-05
0.000172992
0.000112183
3.51619e-05
1.24666e-05
6.58038e-06
5.72693e-06
5.47136e-06
1.52259e-05
0.000152965
7.32765e-05
0.000194055
0.000154521
6.48434e-05
2.50841e-05
1.22407e-05
8.74589e-06
7.65686e-06
1.80617e-05
0.000133087
0.114495
0.0293214
0.0266494
0.0266328
0.0266314
0.0266314
0.026633
0.0266495
0.0293245
0.114601
0.0392392
0.0020887
0.0011743
0.00115791
0.00114866
0.00115084
0.00115123
0.00116626
0.00208296
0.0394397
0.0165912
0.000942549
3.78188e-05
3.57241e-05
3.34809e-05
3.43345e-05
3.38534e-05
3.63925e-05
0.00104826
0.0166842
0.00833705
0.000558081
4.65856e-07
5.57122e-07
5.54889e-07
4.96143e-07
3.50162e-07
4.80369e-07
0.000546973
0.00839824
0.00480303
0.000367173
4.64355e-07
5.0025e-09
6.20438e-09
6.31323e-09
3.40257e-09
3.18244e-07
0.000326634
0.00483776
0.00307224
0.000191309
3.27112e-07
5.91219e-09
2.62756e-10
2.74114e-10
5.80632e-11
5.42904e-07
0.000197655
0.00309404
0.00212354
0.000166174
1.74151e-06
1.10958e-09
5.81434e-10
3.25967e-10
7.37962e-10
6.96683e-07
0.000155092
0.00213912
0.00155824
0.000149839
9.39983e-07
1.22398e-10
2.80582e-10
3.92482e-10
3.33249e-10
5.20887e-07
0.000147313
0.00157093
0.00119849
0.000149656
6.91899e-07
6.12882e-10
4.84506e-11
1.6571e-10
4.24491e-10
6.7492e-07
0.000115649
0.00121064
0.000953737
0.000130362
8.18905e-07
4.63612e-10
3.5898e-11
9.35535e-11
8.41016e-11
9.10682e-07
0.000106666
0.000972116
0.000784322
0.00011351
2.3216e-07
1.37157e-10
2.28635e-10
1.60146e-10
1.69985e-10
7.05203e-07
9.29751e-05
0.000798679
0.000661435
9.06216e-05
2.36697e-07
2.54962e-10
1.14809e-10
1.56872e-10
2.84527e-10
6.43991e-07
8.03443e-05
0.000674835
0.000568654
6.67723e-05
2.67162e-07
2.75443e-10
4.71487e-10
3.31348e-10
7.783e-10
5.27739e-07
7.11629e-05
0.000581588
0.000495657
6.28222e-05
3.50406e-07
1.96386e-09
5.27169e-10
1.88417e-10
9.22049e-10
7.28778e-07
6.46702e-05
0.000509414
0.000437594
5.61496e-05
6.61651e-07
3.01777e-09
5.66899e-10
2.91824e-10
1.57608e-09
7.25958e-07
5.754e-05
0.000452494
0.000390284
5.82119e-05
1.22006e-06
1.49889e-08
1.25354e-09
7.3459e-10
2.38193e-09
6.50039e-07
5.25866e-05
0.000406796
0.000351195
6.30714e-05
1.82215e-06
3.40073e-08
1.94175e-09
1.45011e-09
3.47246e-09
7.90688e-07
5.10939e-05
0.000368968
0.000318166
6.70056e-05
2.62946e-06
5.43902e-08
3.39581e-09
2.72439e-09
6.27027e-09
8.11827e-07
4.98963e-05
0.000338627
0.000289678
7.16561e-05
3.42939e-06
8.94931e-08
1.02138e-08
4.90977e-09
8.37536e-09
8.32733e-07
4.76159e-05
0.000311878
0.000264704
7.6542e-05
4.93313e-06
1.70118e-07
7.78271e-09
5.56646e-09
1.22415e-08
8.38544e-07
4.56093e-05
0.000290779
0.000242291
8.13395e-05
6.13094e-06
2.62859e-07
2.97428e-08
1.019e-08
1.40518e-08
7.54456e-07
4.25284e-05
0.000270519
0.000221742
8.82932e-05
8.60773e-06
4.81438e-07
3.2762e-08
1.22462e-08
1.8891e-08
7.38445e-07
3.97313e-05
0.000255479
0.000202446
9.46285e-05
1.08533e-05
7.63132e-07
8.74689e-08
1.45979e-08
1.86717e-08
6.76206e-07
3.59666e-05
0.000238874
0.000183807
0.000100583
1.49654e-05
1.34979e-06
1.15651e-07
2.9452e-08
3.16468e-08
5.84729e-07
3.26614e-05
0.000227821
0.000165448
0.000111946
1.9221e-05
2.16192e-06
3.08826e-07
3.9149e-08
3.13824e-08
5.09676e-07
2.82137e-05
0.00021276
0.000147332
0.000124468
2.77069e-05
3.69003e-06
4.35365e-07
9.77123e-08
6.00498e-08
4.2777e-07
2.45933e-05
0.000203377
0.000128984
0.00013241
4.46765e-05
6.56217e-06
1.12423e-06
1.45933e-07
6.69691e-08
3.58241e-07
1.95153e-05
0.000188059
0.000110395
0.000142164
6.68334e-05
1.35205e-05
2.10611e-06
4.48185e-07
1.73292e-07
3.01572e-07
1.62809e-05
0.000175035
9.17005e-05
0.000154096
9.06227e-05
2.22145e-05
4.91542e-06
8.65026e-07
2.31415e-07
3.55545e-07
1.10312e-05
0.000155391
7.39274e-05
0.000166793
0.000121733
4.13847e-05
1.01668e-05
2.68207e-06
8.26776e-07
4.39481e-07
1.02336e-05
0.000127094
0.114476
0.029321
0.0266481
0.0266314
0.0266298
0.0266298
0.0266314
0.0266481
0.0293241
0.114583
0.0391826
0.00208766
0.00116342
0.00115084
0.00114759
0.0011492
0.00114958
0.00116166
0.00208165
0.0393828
0.0165362
0.000942434
3.50908e-05
3.40648e-05
3.3703e-05
3.442e-05
3.39607e-05
3.56051e-05
0.00104879
0.0166285
0.0082949
0.000560172
4.83423e-07
3.32373e-07
3.6696e-07
6.67862e-07
3.64827e-07
4.24269e-07
0.000514473
0.00835166
0.00477291
0.00035248
4.70212e-07
2.51443e-10
1.21451e-09
7.44205e-09
3.44961e-09
2.86717e-07
0.000342819
0.00480464
0.00304722
0.000238161
6.3155e-07
4.26219e-11
1.49738e-12
1.66468e-11
1.22266e-10
8.46453e-07
0.000183392
0.00306983
0.00211019
0.000138704
1.40321e-06
9.80613e-11
7.90179e-15
5.46019e-14
3.44348e-10
5.6571e-07
0.000157701
0.00212043
0.00154513
0.000141041
8.69625e-07
2.26443e-10
6.25998e-14
4.65129e-13
2.87825e-10
7.6653e-07
0.000149869
0.00155619
0.001189
0.000116195
7.25423e-07
1.89996e-11
4.15117e-15
5.24911e-14
7.48588e-10
9.48741e-07
0.000118509
0.00119869
0.000950715
8.68247e-05
5.34142e-07
3.14243e-10
5.26968e-15
1.38144e-14
8.55737e-10
7.59726e-07
0.000108513
0.00096338
0.000782141
7.56021e-05
6.19607e-07
8.33751e-10
6.48266e-14
1.66325e-14
3.65901e-10
6.9779e-07
9.45575e-05
0.000790798
0.000658365
6.74625e-05
5.91019e-07
1.34308e-09
1.09989e-12
3.25338e-14
3.46109e-10
5.45082e-07
7.57519e-05
0.000668982
0.000564675
5.79628e-05
5.51751e-07
2.86047e-09
6.89541e-12
1.26995e-13
3.43201e-10
3.94716e-07
6.31269e-05
0.000577067
0.000492037
5.8035e-05
7.22777e-07
4.0722e-09
1.20294e-11
3.59108e-13
5.15992e-10
4.21003e-07
5.76586e-05
0.000505214
0.000434298
5.86957e-05
8.66055e-07
7.77268e-09
2.15848e-11
4.13981e-13
8.79282e-10
4.63931e-07
5.34951e-05
0.000448514
0.000387512
6.10469e-05
1.22035e-06
1.6072e-08
1.73613e-10
1.80357e-12
1.2537e-09
5.44049e-07
5.07907e-05
0.000403047
0.000348819
6.36117e-05
1.74339e-06
2.74389e-08
3.84255e-10
2.50991e-12
1.47935e-09
6.01855e-07
4.85495e-05
0.0003655
0.000316116
6.62058e-05
2.58554e-06
5.92628e-08
6.73216e-10
2.20657e-11
2.03234e-09
6.40394e-07
4.58424e-05
0.000335233
0.00028798
6.98686e-05
3.34816e-06
9.26997e-08
3.0987e-09
4.76238e-11
2.25595e-09
6.99796e-07
4.47492e-05
0.000308738
0.000263255
7.31054e-05
4.56893e-06
1.63711e-07
4.24061e-09
6.80234e-11
2.51498e-09
7.10591e-07
4.23783e-05
0.000287646
0.000241125
7.84645e-05
5.69617e-06
2.54339e-07
1.66731e-08
8.40706e-10
2.34763e-09
7.04519e-07
3.97888e-05
0.00026762
0.000220763
8.3284e-05
7.97944e-06
4.58795e-07
2.12281e-08
6.57374e-10
2.97305e-09
6.64245e-07
3.67315e-05
0.000252531
0.000201693
9.20622e-05
1.01316e-05
6.84467e-07
6.41646e-08
5.97236e-09
3.05037e-09
5.87902e-07
3.30883e-05
0.000236017
0.000183261
9.87192e-05
1.44384e-05
1.27765e-06
9.02451e-08
1.77e-09
2.49152e-09
5.16114e-07
2.98469e-05
0.000224965
0.000165096
0.000111175
1.87827e-05
2.03721e-06
2.64929e-07
2.847e-08
5.10619e-09
4.28635e-07
2.54569e-05
0.000209761
0.000146933
0.000123085
2.6646e-05
3.69053e-06
3.90697e-07
3.82669e-08
1.25568e-08
3.44217e-07
2.21362e-05
0.00020045
0.000128453
0.000131635
4.38445e-05
6.1347e-06
1.00105e-06
1.77487e-07
2.58065e-09
2.71432e-07
1.73557e-05
0.000184679
0.000109327
0.000140464
6.45812e-05
1.29104e-05
1.87593e-06
2.73774e-07
7.75601e-08
1.76379e-07
1.42291e-05
0.000173072
9.00007e-05
0.000153377
8.91714e-05
2.13834e-05
4.44036e-06
9.95064e-07
1.07419e-07
2.01178e-07
9.45382e-06
0.000148756
7.05672e-05
0.000165272
0.000120238
4.01506e-05
9.31325e-06
2.20911e-06
5.89389e-07
2.43398e-07
8.1526e-06
0.000132524
0.114476
0.029321
0.0266481
0.0266314
0.0266298
0.0266298
0.0266314
0.026648
0.0293241
0.114583
0.0391826
0.00208803
0.00116575
0.00114912
0.00114819
0.00114816
0.00115032
0.00116266
0.00208026
0.0393825
0.0165363
0.000942266
3.58158e-05
3.3753e-05
3.41144e-05
3.41882e-05
3.42555e-05
3.59916e-05
0.00104866
0.0166281
0.0082951
0.000558663
4.30675e-07
3.58325e-07
3.36468e-07
3.38473e-07
3.45662e-07
4.98727e-07
0.00051319
0.00835072
0.00477206
0.000371271
4.8128e-07
1.34398e-09
5.3311e-11
4.96415e-11
8.6412e-11
4.38781e-07
0.000342955
0.00480386
0.00304956
0.000193853
3.24944e-07
1.06813e-10
7.79303e-15
1.21852e-14
3.26235e-12
3.38168e-07
0.00018307
0.0030695
0.00210606
0.000169323
1.86968e-06
2.90217e-10
3.31196e-14
2.28519e-14
2.97706e-11
3.91483e-07
0.000158735
0.00212016
0.00154361
0.000153213
9.90762e-07
7.79029e-11
1.93328e-14
5.56942e-14
2.97725e-10
7.78847e-07
0.000151418
0.00155564
0.00118839
0.000150828
7.57899e-07
7.75673e-11
2.61668e-14
3.37513e-13
7.4286e-10
8.21722e-07
0.000119696
0.00119897
0.000943061
0.000136283
9.40934e-07
3.12785e-10
1.02241e-13
5.50724e-13
1.74811e-10
3.41389e-07
0.000110074
0.000962492
0.000778605
0.000104161
8.34879e-07
2.15763e-10
7.01209e-14
5.32191e-13
8.28596e-11
5.20808e-07
9.46454e-05
0.000792065
0.000656752
7.87531e-05
4.5551e-07
2.59226e-10
8.03733e-14
3.94503e-13
1.84139e-10
4.03049e-07
7.47145e-05
0.000669738
0.000564147
6.03696e-05
4.53487e-07
5.28261e-10
4.35719e-15
1.45656e-12
2.72592e-10
3.31906e-07
5.824e-05
0.000577388
0.000491595
5.67754e-05
4.47416e-07
1.44345e-09
2.68189e-13
1.07296e-12
3.68148e-10
3.57585e-07
5.26761e-05
0.000505383
0.000434152
5.54329e-05
4.4835e-07
1.25337e-09
1.39237e-12
7.7671e-12
7.83944e-10
4.14347e-07
4.87959e-05
0.000448542
0.000387372
5.9121e-05
7.24479e-07
2.51893e-09
1.75552e-10
7.00508e-12
8.08207e-10
4.32426e-07
4.63664e-05
0.000403067
0.000348755
6.33207e-05
1.19082e-06
8.70091e-09
1.14594e-10
2.065e-11
1.57475e-09
5.76152e-07
4.59616e-05
0.000365445
0.000316144
6.73016e-05
2.11508e-06
2.31986e-08
1.94006e-10
2.85298e-11
1.73068e-09
6.15319e-07
4.51619e-05
0.000335234
0.000288053
7.10462e-05
2.7607e-06
5.40261e-08
1.17484e-09
3.07608e-11
1.98789e-09
6.49173e-07
4.34854e-05
0.000308667
0.000263343
7.53253e-05
4.07956e-06
1.23646e-07
2.18346e-09
1.14479e-10
2.1645e-09
6.48629e-07
4.14389e-05
0.000287578
0.000241261
8.03744e-05
5.38465e-06
1.96468e-07
4.37959e-09
1.19948e-10
2.09868e-09
6.4596e-07
3.8959e-05
0.000267546
0.000220929
8.45694e-05
7.69649e-06
3.84621e-07
2.64815e-08
8.59436e-10
1.94612e-09
6.04594e-07
3.60468e-05
0.000252312
0.000201822
9.19542e-05
9.91268e-06
6.69224e-07
3.39191e-08
2.74927e-09
2.64181e-09
5.51702e-07
3.32612e-05
0.000236118
0.000183379
9.86202e-05
1.43053e-05
1.18861e-06
1.20653e-07
2.60964e-09
3.22286e-09
4.94469e-07
3.00547e-05
0.000224821
0.000165209
0.000111104
1.8686e-05
2.09958e-06
1.72711e-07
2.37428e-08
4.20876e-09
4.31326e-07
2.6335e-05
0.000210205
0.000147108
0.000123468
2.71057e-05
3.46349e-06
5.10804e-07
3.66577e-08
9.51239e-09
3.58334e-07
2.31293e-05
0.00020079
0.000128684
0.000132263
4.45523e-05
6.65339e-06
7.91418e-07
1.49146e-07
1.81463e-08
2.82036e-07
1.8278e-05
0.00018581
0.000109609
0.000141288
6.56386e-05
1.30247e-05
2.29624e-06
2.80673e-07
2.92301e-08
1.83411e-07
1.48081e-05
0.000173264
9.02815e-05
0.000154048
8.99948e-05
2.20206e-05
4.20587e-06
9.40449e-07
2.10816e-07
1.96589e-07
1.00644e-05
0.000150313
7.07914e-05
0.000165998
0.000121209
4.05161e-05
1.02553e-05
2.26158e-06
4.83121e-07
2.63219e-07
8.77694e-06
0.000133479
0.114495
0.0293216
0.0266495
0.026633
0.0266314
0.0266315
0.0266331
0.0266495
0.0293245
0.114601
0.0392391
0.00208109
0.00116875
0.00115004
0.00115
0.00114761
0.00115018
0.00116452
0.00208151
0.0394393
0.0165947
0.00105627
3.64459e-05
3.35205e-05
3.40775e-05
3.35821e-05
3.38112e-05
3.61542e-05
0.00104883
0.0166828
0.00833751
0.000544259
4.40142e-07
3.45431e-07
3.31447e-07
3.61951e-07
3.5676e-07
5.18805e-07
0.000517105
0.00839329
0.00480201
0.00034026
4.13658e-07
4.04496e-10
1.02218e-10
1.3502e-09
3.58273e-09
3.70342e-07
0.000341361
0.00483406
0.00307214
0.000186958
4.68109e-07
2.18117e-10
1.24606e-11
8.73076e-11
2.12547e-10
6.24698e-07
0.000204673
0.00309201
0.00212349
0.000164801
1.25902e-06
5.20407e-10
5.365e-10
2.40881e-10
1.93488e-09
8.66453e-07
0.000159123
0.00213829
0.00155784
0.000153595
1.42566e-06
7.88967e-10
5.36963e-10
6.3063e-10
7.5971e-10
5.17213e-07
0.00015203
0.00156988
0.00119972
0.000141521
2.08634e-06
1.00215e-08
1.36273e-09
7.91084e-10
1.28131e-09
7.66201e-07
0.000111226
0.00121125
0.000959104
9.39366e-05
1.25024e-06
2.73279e-09
8.32973e-10
1.62576e-09
1.08035e-09
6.55468e-07
0.000113306
0.000970504
0.000787946
8.24739e-05
9.19973e-07
2.34338e-09
1.20089e-09
1.54551e-09
2.17368e-09
9.03445e-07
9.93606e-05
0.000798736
0.000663558
7.15785e-05
9.52272e-07
2.27456e-09
9.3219e-10
1.20116e-09
8.84616e-10
6.31195e-07
8.23061e-05
0.000674767
0.000569305
5.85562e-05
9.54654e-07
3.68345e-09
1.81651e-09
1.46267e-09
1.90326e-09
4.79204e-07
6.40051e-05
0.000581843
0.00049574
5.8791e-05
1.09862e-06
6.6407e-09
1.73111e-09
1.69629e-09
2.58253e-09
4.8417e-07
5.52783e-05
0.000509752
0.000437561
6.07513e-05
1.42448e-06
9.72943e-09
2.90173e-09
2.44918e-09
4.29284e-09
5.64348e-07
4.67667e-05
0.000452664
0.000390162
6.50272e-05
1.76007e-06
2.20338e-08
5.12885e-09
3.25967e-09
6.20692e-09
6.14761e-07
4.48738e-05
0.00040688
0.000351103
6.97287e-05
2.2527e-06
3.41506e-08
8.34959e-09
4.49795e-09
9.00762e-09
6.55229e-07
4.50804e-05
0.000369065
0.000318128
7.38e-05
3.10559e-06
6.59425e-08
9.52996e-09
5.81313e-09
1.13041e-08
6.93073e-07
4.48307e-05
0.000338581
0.00028978
7.82552e-05
4.0021e-06
1.11211e-07
1.8082e-08
6.72701e-09
1.34678e-08
7.06712e-07
4.37455e-05
0.000311921
0.000264809
8.13155e-05
5.39185e-06
1.95149e-07
1.62721e-08
9.26127e-09
1.55156e-08
7.12542e-07
4.16683e-05
0.000290562
0.000242469
8.68874e-05
6.87852e-06
3.20705e-07
4.04209e-08
1.04292e-08
1.87342e-08
6.90808e-07
3.92961e-05
0.000270488
0.000221902
9.08966e-05
9.39223e-06
5.48601e-07
4.16904e-08
1.69673e-08
2.24364e-08
6.48036e-07
3.64065e-05
0.00025496
0.000202669
9.94221e-05
1.20428e-05
8.79395e-07
9.77915e-08
1.88304e-08
2.80599e-08
5.92196e-07
3.332e-05
0.000238747
0.000184092
0.000105787
1.68223e-05
1.59454e-06
1.30946e-07
3.55001e-08
3.65593e-08
5.2542e-07
3.00109e-05
0.000226998
0.000165915
0.000119102
2.16659e-05
2.51914e-06
3.22914e-07
4.67896e-08
4.9863e-08
4.58454e-07
2.61377e-05
0.000212311
0.000147888
0.000129751
3.18914e-05
4.47263e-06
5.1994e-07
1.1532e-07
7.81272e-08
3.9422e-07
2.24311e-05
0.000202641
0.000129583
0.000136835
4.95029e-05
7.72138e-06
1.25921e-06
1.82021e-07
1.02503e-07
3.43758e-07
1.81284e-05
0.000186391
0.000111006
0.000145924
7.05914e-05
1.52421e-05
2.46251e-06
5.30896e-07
2.18794e-07
3.15556e-07
1.41489e-05
0.000176013
9.22104e-05
0.0001564
9.37299e-05
2.39466e-05
5.22476e-06
1.01727e-06
3.11813e-07
4.31414e-07
1.05102e-05
0.000151189
7.42533e-05
0.000168524
0.000122958
4.29355e-05
1.10832e-05
2.9469e-06
9.49823e-07
5.26583e-07
8.15918e-06
0.000137404
0.114566
0.0293439
0.026665
0.0266494
0.026648
0.026648
0.0266495
0.026665
0.0293468
0.114669
0.0394294
0.00209187
0.00120857
0.0011683
0.00116387
0.00116495
0.00116752
0.00120561
0.00208843
0.0396283
0.0167384
0.000967
4.85985e-05
3.70498e-05
3.62796e-05
3.66685e-05
3.70446e-05
4.87818e-05
0.00107643
0.0168324
0.00843377
0.000577222
3.10036e-07
4.91509e-07
5.06129e-07
5.27912e-07
4.9887e-07
2.97473e-07
0.000534983
0.00849243
0.00486278
0.000378963
9.00817e-07
3.1987e-07
3.75165e-07
3.58483e-07
3.74524e-07
6.56108e-07
0.000359181
0.00489393
0.00310704
0.00025206
7.93243e-07
8.65804e-07
3.89374e-07
9.06129e-07
6.52379e-07
1.37008e-06
0.000234159
0.00312836
0.00215059
0.000165214
3.76246e-07
6.52174e-07
1.41372e-06
5.17797e-07
1.07111e-06
9.5191e-07
0.000159988
0.00216494
0.00158071
0.00013712
3.05085e-07
8.43915e-07
7.83145e-07
9.68651e-07
6.83685e-07
5.5206e-07
0.000123065
0.00159158
0.00121193
0.000130726
7.06577e-07
1.04158e-06
1.29695e-06
9.29247e-07
1.07714e-06
6.9601e-07
8.95457e-05
0.00122732
0.000968252
0.000108023
7.84668e-07
1.63319e-06
9.16004e-07
1.05734e-06
6.19015e-07
1.20023e-06
9.25242e-05
0.000977804
0.000796064
8.129e-05
6.01614e-07
9.78594e-07
8.02427e-07
7.72918e-07
6.6981e-07
6.49691e-07
7.18544e-05
0.000804534
0.000670293
6.38103e-05
5.03224e-07
9.79646e-07
6.42133e-07
7.36561e-07
5.52584e-07
5.60643e-07
5.73995e-05
0.000678636
0.000575
5.49222e-05
5.52813e-07
8.72034e-07
5.51132e-07
6.42649e-07
5.49846e-07
5.52437e-07
4.97421e-05
0.000583021
0.000500911
5.73425e-05
7.506e-07
7.39161e-07
6.57149e-07
6.09688e-07
6.63698e-07
7.06877e-07
4.80569e-05
0.000509046
0.000442029
5.58875e-05
1.18281e-06
8.06887e-07
7.34995e-07
6.52497e-07
8.42889e-07
8.58407e-07
4.65701e-05
0.000450963
0.000394175
5.67977e-05
1.60751e-06
1.01287e-06
9.95621e-07
7.62216e-07
1.07252e-06
1.04772e-06
4.95746e-05
0.000404654
0.000354605
6.09126e-05
2.09646e-06
1.11581e-06
1.1714e-06
8.69633e-07
1.22483e-06
1.32596e-06
4.56516e-05
0.000366633
0.000321282
6.38706e-05
2.88668e-06
1.4061e-06
1.45747e-06
1.01952e-06
1.44456e-06
1.48386e-06
4.67054e-05
0.000336097
0.000292621
6.88347e-05
3.60115e-06
1.57189e-06
1.6457e-06
1.17399e-06
1.61626e-06
1.73042e-06
4.82733e-05
0.000309634
0.000267397
7.22997e-05
4.87094e-06
1.99082e-06
1.82353e-06
1.43187e-06
1.83463e-06
1.8617e-06
4.74035e-05
0.000288518
0.000244765
7.88714e-05
6.10794e-06
2.12489e-06
1.9121e-06
1.46983e-06
1.94973e-06
1.98874e-06
4.51044e-05
0.000268641
0.000223861
8.3943e-05
8.5906e-06
2.80031e-06
2.33346e-06
1.90053e-06
2.19779e-06
2.11692e-06
4.23054e-05
0.000253509
0.000204216
9.38287e-05
1.11505e-05
2.89488e-06
2.34599e-06
1.88089e-06
2.26639e-06
2.34175e-06
3.86553e-05
0.000237304
0.000185093
0.000101517
1.62155e-05
3.63813e-06
2.54581e-06
2.11068e-06
2.52617e-06
2.55231e-06
3.5168e-05
0.000226075
0.000166244
0.000117353
2.10913e-05
4.87314e-06
3.09404e-06
2.41772e-06
2.93704e-06
3.01275e-06
3.12426e-05
0.000211495
0.000147236
0.000130472
3.27173e-05
6.9654e-06
3.80237e-06
3.13018e-06
3.46154e-06
3.43932e-06
2.70448e-05
0.000202137
0.000127601
0.000140119
5.05911e-05
1.1493e-05
5.36475e-06
3.88421e-06
4.25558e-06
4.27657e-06
2.37089e-05
0.000187122
0.000106969
0.000153795
7.69963e-05
1.87898e-05
7.81177e-06
5.52049e-06
5.29684e-06
5.20371e-06
1.9635e-05
0.000175033
8.66731e-05
0.000170241
0.000107575
3.36388e-05
1.27818e-05
7.75456e-06
7.41098e-06
7.17864e-06
1.79027e-05
0.000155021
7.27154e-05
0.000191978
0.000150955
6.1472e-05
2.38217e-05
1.28544e-05
1.04515e-05
9.92699e-06
2.19278e-05
0.00013525
0.114825
0.0316365
0.0293476
0.0293251
0.0293247
0.0293247
0.0293251
0.0293475
0.0316404
0.11492
0.0398302
0.00350928
0.00209124
0.00208093
0.00208093
0.00208099
0.00208091
0.00208775
0.00349887
0.0400162
0.016962
0.00180197
0.00107973
0.00105418
0.00105136
0.00105183
0.00105321
0.00108021
0.00180539
0.0170628
0.00856074
0.00148285
0.00053628
0.000543157
0.000515264
0.000515435
0.000540507
0.000535537
0.00147493
0.00863608
0.00492094
0.00108819
0.000347026
0.000316725
0.000346667
0.000334574
0.000339374
0.000362526
0.00110847
0.00496147
0.00311523
0.000881951
0.000228676
0.000222877
0.000186044
0.000229771
0.000188739
0.000233065
0.000811145
0.00315462
0.00213512
0.000718813
0.000162254
0.000135026
0.000162284
0.000140176
0.000162456
0.00017256
0.000541808
0.00216453
0.00156041
0.000534617
0.000123295
0.00013438
0.000149551
0.000133182
0.000147834
0.000108968
0.000430205
0.0015891
0.00119967
0.000391303
0.000121654
0.000125899
0.000138107
0.000136464
0.000134436
0.000110522
0.000358434
0.00120546
0.000952358
0.000318292
9.31039e-05
0.000106125
8.66684e-05
0.000104897
8.60941e-05