/*--------------------------------*- C++ -*----------------------------------*\
| =========                 |                                                 |
| \\      /  F ield         | OpenFOAM: The Open Source CFD Toolbox           |
|  \\    /   O peration     | Version:  4.1                                   |
|   \\  /    A nd           | Web:      www.OpenFOAM.org                      |
|    \\/     M anipulation  |                                                 |
\*---------------------------------------------------------------------------*/
FoamFile
{
    version     2.0;
    format      ascii;
    class       volScalarField;
    location    "600";
    object      nut;
}
// * * * * * * * * * * * * * * * * * * * * * * * * * * * * * * * * * * * * * //

dimensions      [0 2 -1 0 0 0 0];

internalField   nonuniform List<scalar> 
12000
(
0.00383666
0.00380546
0.00380057
0.00379934
0.00379903
0.00379904
0.00379935
0.00380052
0.00380481
0.00383598
0.00225787
0.00224056
0.00222946
0.00222422
0.00222262
0.00222263
0.00222425
0.00222964
0.00224093
0.00225865
0.00146067
0.00146241
0.00145305
0.00144655
0.00144415
0.00144417
0.00144655
0.00145279
0.00146246
0.00146103
0.00102826
0.001039
0.00103124
0.00102537
0.00102286
0.00102282
0.00102541
0.00103138
0.00103919
0.00102851
0.000774916
0.000787216
0.000783263
0.000778397
0.000775879
0.000775937
0.000778369
0.000783221
0.000787207
0.000775102
0.000615871
0.000627224
0.000626309
0.000622423
0.000620326
0.00062026
0.000622783
0.000626399
0.000627803
0.000616262
0.000509725
0.000520483
0.000521058
0.000518329
0.000515865
0.000516076
0.000518488
0.00052123
0.000520034
0.000510211
0.000434794
0.000444601
0.000446996
0.00044393
0.000442156
0.000442689
0.000444687
0.000447301
0.00044471
0.00043565
0.00037972
0.00038942
0.00039195
0.000389515
0.000388653
0.000388104
0.000389967
0.000392401
0.000389962
0.00038093
0.000337724
0.000347029
0.00035016
0.000347966
0.000346743
0.000346918
0.00034892
0.000350348
0.000347675
0.000339302
0.000304801
0.000313934
0.000317085
0.000315988
0.000314803
0.000315035
0.000316709
0.000317944
0.000314893
0.00030681
0.000278345
0.000287345
0.000291185
0.00029011
0.000289216
0.000289449
0.000290905
0.000292176
0.000288374
0.000280845
0.000256716
0.000265817
0.000270283
0.000269234
0.000268258
0.000268459
0.000269748
0.000271056
0.000266971
0.000259757
0.000238682
0.000247907
0.000252272
0.000251655
0.000250792
0.000251035
0.000252274
0.000253541
0.000249264
0.000242359
0.00022338
0.000232871
0.000237285
0.000236907
0.000236181
0.000236436
0.000237581
0.000238808
0.000234578
0.000227848
0.000210176
0.000220035
0.000224543
0.00022427
0.000223723
0.00022404
0.000225127
0.000226304
0.000222159
0.000215598
0.000198587
0.0002089
0.000213594
0.000213425
0.000212996
0.000213354
0.000214437
0.000215639
0.00021163
0.000205225
0.000188232
0.000199128
0.000203972
0.000203974
0.000203729
0.000204191
0.000205248
0.000206468
0.000202592
0.000196343
0.000178783
0.000190385
0.000195479
0.000195659
0.000195599
0.000196092
0.000197186
0.000198599
0.000194922
0.000188829
0.000169926
0.000182438
0.000187871
0.000188278
0.000188437
0.000189119
0.00019024
0.00019173
0.000188272
0.000182334
0.000161359
0.000174992
0.000180963
0.00018167
0.000181991
0.000182756
0.00018402
0.000185793
0.000182713
0.000176968
0.000152711
0.000167785
0.000174539
0.000175676
0.000176288
0.000177376
0.000178688
0.00018056
0.000177862
0.000172289
0.000143547
0.000160391
0.000168464
0.000170153
0.000170929
0.000172165
0.000173792
0.000176106
0.000174008
0.000168707
0.00013315
0.000152435
0.000162357
0.000164983
0.000166248
0.000167936
0.00016963
0.000172126
0.000170582
0.000165608
0.000120479
0.000142924
0.000156006
0.000159848
0.000161439
0.00016335
0.000165685
0.000168927
0.000168194
0.000163743
0.000102787
0.000131101
0.000148523
0.000154677
0.000157299
0.000159806
0.000162146
0.000165878
0.00016589
0.000162273
7.66512e-05
0.0001141
0.000139
0.00014814
0.000151915
0.000155192
0.000158709
0.000163613
0.000164733
0.000162193
6.2374e-05
9.34206e-05
0.000124671
0.000140059
0.000147056
0.000151216
0.000154574
0.000160747
0.000163663
0.000163131
7.2374e-05
8.72353e-05
0.00010172
0.000119468
0.00013568
0.000145156
0.000150719
0.000157886
0.00016357
0.000163855
9.24831e-05
0.000104573
0.000107841
0.000107654
0.000115157
0.000125583
0.00013963
0.00015258
0.000161314
0.000169171
0.00380545
9.93157e-05
8.24422e-05
8.23523e-05
8.23655e-05
8.23656e-05
8.23525e-05
8.24417e-05
9.92816e-05
0.00380616
0.00224052
1.42975e-05
5.28192e-06
5.22235e-06
5.22261e-06
5.22315e-06
5.21969e-06
5.29008e-06
1.42334e-05
0.00224526
0.00146233
1.00444e-05
3.54616e-06
3.39221e-06
3.43163e-06
3.43799e-06
3.42346e-06
2.95623e-06
9.87237e-06
0.00146587
0.00103887
1.48631e-05
2.63101e-06
2.60156e-06
2.69592e-06
2.64975e-06
2.62839e-06
3.03899e-06
1.46739e-05
0.00104291
0.000787024
1.67005e-05
3.42186e-06
2.98896e-06
2.85632e-06
2.94207e-06
3.00769e-06
3.90004e-06
1.74164e-05
0.000790283
0.000626978
2.07351e-05
3.99777e-06
4.15962e-06
3.57903e-06
3.95957e-06
3.76883e-06
4.19106e-06
1.94591e-05
0.000630344
0.000520153
2.37064e-05
4.9127e-06
4.13902e-06
5.494e-06
4.94128e-06
3.97405e-06
5.21948e-06
2.66371e-05
0.000522063
0.000444157
3.16087e-05
4.73065e-06
8.84165e-06
7.85141e-06
6.52506e-06
7.83887e-06
4.9975e-06
3.66109e-05
0.000446514
0.000388926
3.68696e-05
9.19003e-06
1.32729e-05
8.38649e-06
1.05295e-05
1.11892e-05
7.71835e-06
4.05199e-05
0.000391514
0.000346391
4.14922e-05
1.04075e-05
1.66508e-05
1.09875e-05
1.16767e-05
9.60483e-06
9.97504e-06
4.79416e-05
0.000348986
0.000313193
5.03605e-05
1.37489e-05
1.83377e-05
1.07334e-05
8.41125e-06
1.35521e-05
1.16748e-05
4.81718e-05
0.000316042
0.000286446
6.57234e-05
1.32202e-05
2.46761e-05
1.14721e-05
9.06638e-06
2.49984e-05
1.25091e-05
5.79247e-05
0.000289409
0.000264722
8.36584e-05
1.27562e-05
2.41893e-05
1.35606e-05
1.49132e-05
2.63952e-05
1.36918e-05
7.35679e-05
0.000267923
0.000246601
0.000103809
1.60378e-05
2.88127e-05
2.08293e-05
2.05944e-05
2.89919e-05
1.65696e-05
8.99542e-05
0.000250231
0.000231322
0.000120063
2.02721e-05
3.28578e-05
2.46542e-05
2.31219e-05
3.56351e-05
2.02049e-05
0.000103399
0.000235578
0.000218181
0.000129895
2.38609e-05
3.52129e-05
2.97541e-05
2.78293e-05
3.54264e-05
2.43066e-05
0.000108528
0.000223233
0.000206692
0.000136309
2.79038e-05
3.60681e-05
2.58424e-05
2.41162e-05
4.11262e-05
2.81303e-05
0.000112418
0.000212648
0.000196494
0.000141528
3.16904e-05
3.71212e-05
2.94369e-05
2.60002e-05
4.50407e-05
3.18667e-05
0.00011354
0.000203629
0.000187282
0.000144276
3.94526e-05
4.04922e-05
3.67812e-05
2.87576e-05
4.74254e-05
3.50237e-05
0.000113297
0.000195732
0.000178786
0.000150153
4.74037e-05
4.49511e-05
3.93596e-05
3.29347e-05
4.92373e-05
3.9134e-05
0.000110475
0.000188998
0.000170803
0.00015652
5.64294e-05
4.97045e-05
4.43637e-05
3.7701e-05
5.08219e-05
4.39734e-05
0.00010774
0.000182876
0.000163012
0.00015989
6.55862e-05
5.37656e-05
4.91444e-05
4.29497e-05
5.22779e-05
4.84595e-05
0.000103758
0.000177753
0.000155242
0.000164921
7.65578e-05
5.72022e-05
5.49337e-05
4.93189e-05
5.54274e-05
5.32998e-05
0.000100593
0.000172764
0.000147018
0.000164771
9.72807e-05
6.31501e-05
5.84315e-05
5.54496e-05
5.825e-05
5.51974e-05
9.74298e-05
0.000168867
0.000137998
0.000170569
0.000109629
6.86732e-05
6.66744e-05
5.88062e-05
6.13762e-05
6.27557e-05
9.38319e-05
0.000164585
0.000127225
0.000174095
0.000131389
8.06423e-05
6.40656e-05
6.87995e-05
6.27052e-05
5.97335e-05
9.16595e-05
0.00016155
0.000114201
0.000188434
0.000148352
9.0141e-05
7.2038e-05
6.44572e-05
6.66518e-05
6.39919e-05
8.2826e-05
0.000157749
9.71707e-05
0.000197773
0.000180587
0.000116257
8.19132e-05
7.22128e-05
6.99808e-05
6.61161e-05
9.92462e-05
0.000153811
8.59885e-05
0.000212947
0.000203337
0.000143955
0.000111645
8.83e-05
8.2321e-05
8.19551e-05
7.93591e-05
0.00015098
8.78288e-05
0.000235689
0.00023533
0.000196456
0.000137827
0.000109339
9.66849e-05
9.35822e-05
0.000117662
0.000148741
0.00380057
8.24458e-05
6.73523e-05
6.73074e-05
6.73101e-05
6.73093e-05
6.73081e-05
6.73515e-05
8.24196e-05
0.00380221
0.00222943
5.2851e-06
1.3091e-06
1.2619e-06
1.2622e-06
1.25931e-06
1.26497e-06
1.30782e-06
5.25533e-06
0.00223511
0.00145296
3.57135e-06
4.65956e-09
3.61147e-09
3.73744e-09
3.58661e-09
3.7865e-09
4.65792e-09
3.56148e-06
0.00145688
0.00103114
2.65192e-06
2.04687e-12
1.89844e-12
1.97737e-12
1.89232e-12
2.01002e-12
1.9907e-12
2.73608e-06
0.00103527
0.000783002
3.56641e-06
9.47632e-11
1.46e-11
1.45112e-11
1.39926e-11
1.25637e-11
1.01713e-10
2.73605e-06
0.000786163
0.000626136
3.89053e-06
2.6861e-10
4.47669e-10
2.84162e-10
8.7292e-10
2.19504e-10
1.765e-10
3.03505e-06
0.000628665
0.000520541
5.55296e-06
1.14541e-09
5.16001e-09
5.67933e-09
3.38896e-09
1.62267e-09
1.18062e-09
4.39192e-06
0.000522624
0.000445969
7.42505e-06
4.56038e-09
1.21877e-08
2.18727e-08
1.98274e-08
1.22774e-08
2.52615e-09
6.28547e-06
0.000448038
0.000391792
7.86069e-06
5.30576e-09
7.42569e-08
5.70464e-08
3.64851e-08
1.65152e-08
1.07648e-08
6.69692e-06
0.00039351
0.000349292
9.90997e-06
8.79888e-09
8.8094e-08
6.30304e-08
9.58276e-08
2.42656e-08
3.62378e-08
8.89919e-06
0.000351378
0.000316897
8.56872e-06
2.03764e-08
7.70044e-08
8.45994e-08
7.50814e-08
7.91385e-08
5.5686e-08
8.96958e-06
0.000318465
0.000290483
1.325e-05
3.0286e-08
1.68517e-07
5.72109e-08
7.74952e-08
1.72852e-07
5.44982e-08
6.6511e-06
0.000292404
0.000269137
1.74926e-05
2.66207e-08
1.9566e-07
7.22053e-08
6.23331e-08
1.80759e-07
7.73586e-08
8.2579e-06
0.000271109
0.000251206
1.96324e-05
2.09553e-07
3.33067e-07
2.72655e-07
1.22534e-07
2.22051e-07
1.25913e-07
1.17091e-05
0.000253275
0.000235985
2.328e-05
4.45251e-07
3.53484e-07
4.48052e-07
2.42531e-07
5.91658e-07
2.46683e-07
1.71836e-05
0.00023828
0.00022288
3.12202e-05
6.81139e-07
9.64661e-07
3.73853e-07
4.42953e-07
6.18456e-07
3.53731e-07
1.97771e-05
0.000225769
0.000211447
3.89407e-05
1.68041e-06
7.12685e-07
6.9786e-07
3.9982e-07
6.07345e-07
5.277e-07
2.53145e-05
0.000214851
0.000201277
4.30851e-05
1.63456e-06
8.14993e-07
7.87383e-07
5.51717e-07
7.78383e-07
7.48742e-07
2.48984e-05
0.00020568
0.000192091
5.27105e-05
1.95135e-06
8.3148e-07
9.22941e-07
7.34022e-07
1.19878e-06
8.8104e-07
2.95753e-05
0.000197331
0.000183616
5.93687e-05
3.62633e-06
1.05724e-06
9.34048e-07
1.12068e-06
1.47251e-06
1.61331e-06
3.29118e-05
0.000190444
0.000175691
7.43436e-05
5.42678e-06
1.13558e-06
1.09786e-06
1.17316e-06
2.03229e-06
1.64589e-06
3.41616e-05
0.000183661
0.000168056
8.24061e-05
9.25963e-06
1.67401e-06
1.32826e-06
1.19315e-06
2.00271e-06
1.614e-06
3.40257e-05
0.000178345
0.000160575
9.65532e-05
1.2974e-05
2.47132e-06
1.66454e-06
1.26131e-06
2.67858e-06
1.76357e-06
3.31624e-05
0.000172432
0.000152927
0.000105553
1.92038e-05
3.66605e-06
2.23132e-06
1.68157e-06
2.35695e-06
1.98781e-06
3.11648e-05
0.000168194
0.000145019
0.000125482
2.6374e-05
5.69398e-06
2.89331e-06
2.06451e-06
2.55949e-06
2.44474e-06
2.93299e-05
0.000162534
0.000136531
0.000135142
4.09662e-05
8.60463e-06
4.16779e-06
3.03541e-06
3.0616e-06
2.85555e-06
2.6279e-05
0.000158821
0.000127211
0.000146821
6.56697e-05
1.47761e-05
5.87874e-06
3.92358e-06
4.01582e-06
3.83522e-06
2.33751e-05
0.000152582
0.000116533
0.000161462
9.3581e-05
2.4994e-05
9.55896e-06
5.68343e-06
5.07806e-06
4.6786e-06
2.08771e-05
0.000147559
0.000104915
0.000178105
0.000130707
4.39819e-05
1.60893e-05
8.67507e-06
7.34185e-06
6.80242e-06
1.65576e-05
0.000138871
9.61162e-05
0.000197955
0.000168
8.10594e-05
3.24667e-05
1.62915e-05
1.13166e-05
8.9763e-06
1.89279e-05
0.000129534
0.00379933
8.23564e-05
6.73085e-05
6.72674e-05
6.7268e-05
6.72685e-05
6.72661e-05
6.73069e-05
8.233e-05
0.00380109
0.0022242
5.23187e-06
1.26626e-06
1.24305e-06
1.23626e-06
1.23814e-06
1.23951e-06
1.2612e-06
5.19942e-06
0.00222988
0.00144628
2.87943e-06
3.79566e-09
3.73425e-09
3.45887e-09
3.53861e-09
3.47505e-09
3.75437e-09
3.34596e-06
0.00145033
0.00102523
3.02811e-06
2.10905e-12
2.03262e-12
2.50491e-12
1.95474e-12
1.05309e-12
2.10945e-12
2.61276e-06
0.00102898
0.000778166
3.84624e-06
1.68258e-11
4.76794e-16
4.2582e-16
4.26719e-16
1.08911e-16
1.00264e-11
2.92522e-06
0.000780974
0.000622361
3.54796e-06
2.42549e-10
6.05604e-16
9.48387e-17
5.37634e-17
1.51287e-17
1.32555e-10
3.36581e-06
0.000624565
0.000517421
6.23284e-06
1.33409e-08
1.8403e-15
1.58965e-14
1.69014e-15
4.0794e-14
9.05633e-10
5.05818e-06
0.000519317
0.000443232
1.15342e-05
2.53122e-08
1.4175e-16
3.77388e-13
2.10341e-13
7.01659e-13
2.19006e-09
9.33467e-06
0.000445033
0.000388715
1.60427e-05
5.9224e-08
1.60378e-14
1.97859e-14
1.24768e-12
8.32879e-12
8.28041e-09
1.28432e-05
0.000390681
0.00034676
1.95437e-05
1.30897e-07
8.76039e-13
3.91029e-13
3.4565e-12
4.42095e-13
1.17275e-08
1.308e-05
0.000350085
0.000314457
2.22141e-05
1.67226e-08
9.0127e-13
2.43881e-11
1.40956e-11
1.87863e-12
1.59937e-08
1.48161e-05
0.000317322
0.000288774
2.37687e-05
2.0184e-08
3.20401e-12
2.66178e-12
1.43992e-11
8.48883e-12
2.56015e-08
1.69769e-05
0.000291684
0.000267756
2.17325e-05
4.24664e-08
5.17651e-12
5.10065e-11
9.04026e-11
1.06166e-10
2.39728e-08
2.19813e-05
0.000270783
0.00024998
2.6287e-05
9.60658e-08
1.40422e-10
4.7632e-11
1.37626e-11
1.40181e-10
6.19582e-08
2.61802e-05
0.000253425
0.000234882
2.66029e-05
5.19719e-07
4.63308e-10
5.70457e-11
4.1462e-11
5.17356e-10
1.0525e-07
2.76412e-05
0.000238848
0.000221822
3.13522e-05
7.754e-07
1.45108e-08
3.88025e-10
3.0223e-10
1.58843e-09
1.69922e-07
2.88633e-05
0.000226466
0.000210421
3.9074e-05
1.38388e-06
3.4683e-08
1.15152e-09
7.79514e-10
8.50585e-09
3.60593e-07
3.22798e-05
0.00021568
0.000200282
4.61261e-05
2.19335e-06
4.0521e-08
2.44474e-09
2.16186e-09
4.94046e-09
5.18259e-07
3.52886e-05
0.000206621
0.000191105
5.36852e-05
2.86856e-06
6.28582e-08
1.29572e-08
5.14095e-09
6.19291e-09
7.14186e-07
3.69779e-05
0.000198293
0.000182682
6.25974e-05
4.70441e-06
1.45633e-07
5.11713e-09
3.75811e-09
9.46396e-09
8.49297e-07
3.91445e-05
0.000191468
0.000174777
7.01639e-05
5.74374e-06
2.26563e-07
4.129e-08
1.0056e-08
1.11682e-08
7.93958e-07
3.96393e-05
0.000184677
0.000167201
8.1723e-05
8.70329e-06
4.75922e-07
2.93477e-08
1.20266e-08
1.67806e-08
8.56458e-07
3.96768e-05
0.00017947
0.000159761
9.11963e-05
1.13165e-05
8.02656e-07
1.12006e-07
1.27473e-08
1.48509e-08
8.17274e-07
3.80946e-05
0.00017354
0.000152228
9.78512e-05
1.6203e-05
1.49234e-06
1.41611e-07
4.09933e-08
3.89013e-08
7.0664e-07
3.62434e-05
0.000169477
0.000144426
0.000113984
2.12432e-05
2.4847e-06
3.37302e-07
2.7739e-08
2.38354e-08
6.39387e-07
3.27412e-05
0.000163779
0.00013629
0.000125644
3.27454e-05
4.24813e-06
5.06827e-07
1.3926e-07
8.40682e-08
5.39605e-07
2.93719e-05
0.000160127
0.000127521
0.000136417
5.39242e-05
8.46303e-06
1.36371e-06
1.09663e-07
4.83398e-08
4.75322e-07
2.4069e-05
0.000153979
0.000117975
0.000148983
8.07731e-05
1.78041e-05
2.81078e-06
7.00713e-07
2.98005e-07
3.6253e-07
2.01752e-05
0.000148552
0.000107523
0.000163799
0.000108284
2.9455e-05
6.69731e-06
8.93392e-07
1.70721e-07
5.03337e-07
1.33385e-05
0.000139967
9.65422e-05
0.000178442
0.000146194
5.6095e-05
1.43792e-05
4.07511e-06
1.28987e-06
4.38712e-07
1.03966e-05
0.000126583
0.00379903
8.23696e-05
6.73092e-05
6.72686e-05
6.72703e-05
6.72706e-05
6.72681e-05
6.73084e-05
8.23427e-05
0.0038008
0.0022226
5.2356e-06
1.25711e-06
1.23646e-06
1.23419e-06
1.23581e-06
1.23772e-06
1.25788e-06
5.2059e-06
0.00222827
0.00144388
2.89571e-06
3.58559e-09
3.63922e-09
3.5318e-09
3.58935e-09
3.48395e-09
3.62965e-09
3.31954e-06
0.00144791
0.00102263
3.05876e-06
2.43735e-12
6.85468e-13
9.70785e-13
3.22917e-12
1.14413e-12
2.02319e-12
2.54307e-06
0.00102613
0.000775722
3.80582e-06
1.77488e-11
5.10659e-18
2.52038e-17
8.1091e-16
1.09897e-16
1.31058e-11
3.52261e-06
0.000778296
0.000619821
4.74123e-06
5.40226e-10
3.79077e-18
6.59927e-23
1.69129e-20
5.72331e-18
3.13928e-10
3.48945e-06
0.000622116
0.000515793
4.62005e-06
5.71765e-09
2.38017e-14
3.83645e-22
1.69062e-22
1.41098e-15
9.12667e-10
6.42813e-06
0.000517043
0.000441363
9.61468e-06
1.56521e-08
1.62779e-12
1.55406e-17
7.43996e-20
1.39985e-14
3.66376e-09
1.17062e-05
0.00044294
0.000387174
1.23786e-05
4.43974e-08
6.21391e-14
1.31954e-19
3.03556e-18
3.41244e-13
1.40216e-08
1.59017e-05
0.000388748
0.00034621
1.11433e-05
7.05111e-08
1.252e-11
9.71521e-19
2.68698e-18
5.71848e-13
1.44402e-08
1.57532e-05
0.000348508
0.00031402
1.56551e-05
1.51734e-07
6.24991e-11
5.55785e-16
4.4201e-18
5.13459e-13
2.52271e-08
1.7687e-05
0.000315753
0.000288103
2.00361e-05
1.6877e-07
1.82802e-10
1.82208e-14
4.07752e-17
8.37349e-13
2.71612e-08
1.73952e-05
0.000290417
0.000266817
2.17427e-05
1.87931e-07
7.66046e-10
3.53589e-13
6.99844e-16
2.06177e-12
2.99081e-08
1.99895e-05
0.000269729
0.000249065
2.69875e-05
4.18812e-07
1.47621e-09
8.49912e-13
6.7682e-15
7.14104e-12
7.4137e-08
2.40482e-05
0.000252378
0.000233996
3.09066e-05
4.95065e-07
3.92289e-09
2.33605e-12
1.84383e-14
2.77484e-11
9.58159e-08
2.74368e-05
0.000237795
0.000221033
3.66623e-05
8.67078e-07
1.14468e-08
1.18898e-10
1.59981e-13
1.0304e-10
1.59717e-07
3.04324e-05
0.00022542
0.000209708
4.24898e-05
1.14692e-06
1.96174e-08
3.20184e-10
4.85246e-13
2.66831e-10
2.28064e-07
3.27343e-05
0.000214663
0.000199636
4.83015e-05
1.9052e-06
3.86355e-08
3.64829e-10
2.32723e-11
9.28784e-10
2.99137e-07
3.37427e-05
0.000205583
0.000190544
5.47462e-05
2.72597e-06
7.40611e-08
3.87981e-09
4.11924e-11
1.0338e-09
4.05846e-07
3.65295e-05
0.000197292
0.000182181
6.11463e-05
4.19977e-06
1.44481e-07
2.94469e-09
3.09404e-11
1.83693e-09
4.75558e-07
3.74539e-05
0.000190434
0.000174356
6.88489e-05
5.36633e-06
2.4544e-07
2.25769e-08
2.55357e-09
1.648e-09
5.96678e-07
3.79456e-05
0.000183685
0.000166831
7.64494e-05
8.02644e-06
4.70777e-07
2.89393e-08
4.07826e-10
2.89628e-09
6.8371e-07
3.69099e-05
0.000178432
0.000159463
8.97083e-05
1.04635e-05
7.09021e-07
6.2717e-08
1.21162e-08
3.1559e-09
6.56279e-07
3.50599e-05
0.000172499
0.000152002
9.67293e-05
1.5864e-05
1.43402e-06
1.03747e-07
5.51586e-10
2.43562e-09
6.18381e-07
3.29181e-05
0.000168411
0.000144272
0.000114413
2.06828e-05
2.34925e-06
2.80477e-07
4.26501e-08
6.59052e-09
5.31246e-07
2.91793e-05
0.000162621
0.000136105
0.000124614
3.18811e-05
4.38431e-06
4.58697e-07
5.92147e-08
2.83585e-08
4.47179e-07
2.61311e-05
0.000158971
0.000127259
0.00013595
5.25753e-05
7.55938e-06
1.14997e-06
1.9943e-07
4.55298e-10
3.67154e-07
2.10589e-05
0.000152589
0.000117403
0.000146651
7.72426e-05
1.69134e-05
2.42706e-06
3.39419e-07
1.35432e-06
2.13661e-07
1.72052e-05
0.000147716
0.000106522
0.000163274
0.000106373
2.82869e-05
5.82708e-06
1.25155e-06
5.9349e-08
3.20906e-07
1.11918e-05
0.000136947
9.43227e-05
0.000176045
0.000144484
5.42442e-05
1.26893e-05
2.98446e-06
8.95428e-07
2.1853e-07
7.90364e-06
0.000129259
0.00379903
8.23696e-05
6.73095e-05
6.72682e-05
6.72706e-05
6.72706e-05
6.72685e-05
6.73086e-05
8.23429e-05
0.00380079
0.0022226
5.23655e-06
1.25958e-06
1.23643e-06
1.23391e-06
1.2341e-06
1.23656e-06
1.25814e-06
5.2058e-06
0.00222826
0.00144389
2.8926e-06
3.60802e-09
3.52349e-09
3.67686e-09
3.68696e-09
3.6921e-09
3.73287e-09
3.32249e-06
0.00144789
0.00102265
3.07436e-06
2.14395e-12
9.62845e-13
6.79574e-13
6.8838e-13
7.22964e-13
2.30666e-12
2.55161e-06
0.00102607
0.000775653
3.99115e-06
2.16694e-11
2.59875e-17
6.02569e-18
5.30626e-18
3.78715e-18
1.13572e-11
3.56568e-06
0.000778233
0.000620059
3.68078e-06
2.9212e-10
1.44861e-18
1.79436e-22
1.84906e-22
2.48169e-18
1.67776e-10
3.52355e-06
0.000622083
0.000515288
6.53518e-06
1.85226e-08
1.22284e-15
3.48956e-19
7.89013e-21
2.38374e-14
1.41969e-09
6.56113e-06
0.00051701
0.000441147
1.22179e-05
3.24256e-08
3.18353e-14
3.4309e-18
1.3214e-17
5.25731e-12
1.67625e-08
1.2038e-05
0.000442863
0.000387074
1.63869e-05
7.28039e-08
5.57575e-13
9.6576e-18
6.22013e-17
1.92131e-11
3.85724e-08
1.62426e-05
0.000388793
0.000344814
2.14443e-05
1.64995e-07
6.3135e-12
1.68438e-16
7.43356e-16
4.39669e-12
1.41422e-08
1.64695e-05
0.000348348
0.000313309
1.90074e-05
1.94345e-07
3.46885e-12
5.2109e-17
8.99172e-16
4.77489e-12
7.31512e-08
1.77319e-05
0.000316006
0.00028775
1.92074e-05
7.52159e-08
4.47967e-12
4.22787e-17
2.01951e-15
2.0216e-11
6.74198e-08
1.65027e-05
0.000290581
0.000266692
1.94866e-05
1.15852e-07
2.23338e-11
4.856e-18
7.2028e-15
3.45328e-11
7.48385e-08
1.66908e-05
0.000269804
0.000248954
2.44757e-05
1.14592e-07
2.51931e-10
7.35277e-15
1.25348e-14
8.01688e-11
1.3298e-07
1.99739e-05
0.000252421
0.000233957
2.81839e-05
1.33711e-07
6.95266e-11
4.17003e-14
4.61401e-13
3.83878e-10
1.85379e-07
2.27725e-05
0.000237802
0.000220993
3.38941e-05
4.05744e-07
2.25063e-10
1.32811e-10
1.30972e-12
4.56618e-10
2.21894e-07
2.53538e-05
0.000225426
0.000209689
3.99927e-05
9.90025e-07
2.49251e-09
2.20534e-11
6.48815e-12
1.21109e-09
4.44576e-07
2.90162e-05
0.000214647
0.000199644
4.84176e-05
2.10394e-06
1.18878e-08
5.76344e-11
1.62421e-11
1.45044e-09
5.66219e-07
3.19469e-05
0.000205584
0.000190568
5.58154e-05
2.4548e-06
3.8103e-08
8.15287e-10
2.09174e-11
1.98453e-09
6.58021e-07
3.39762e-05
0.000197269
0.000182211
6.36259e-05
3.84015e-06
9.83738e-08
1.25006e-09
9.83894e-11
2.28795e-09
6.96188e-07
3.56027e-05
0.000190411
0.000174405
7.09892e-05
5.10915e-06
1.34511e-07
5.45274e-09
6.42849e-11
2.17826e-09
7.36959e-07
3.64344e-05
0.00018366
0.000166894
7.75783e-05
7.84505e-06
3.68401e-07
2.24241e-08
2.3079e-09
1.82118e-09
6.98193e-07
3.58608e-05
0.000178354
0.000159514
8.88777e-05
1.01596e-05
6.61663e-07
3.45762e-08
1.54925e-09
2.90394e-09
6.55756e-07
3.5532e-05
0.000172536
0.000152051
9.6541e-05
1.56839e-05
1.32733e-06
1.10697e-07
3.7352e-09
5.71185e-09
6.16474e-07
3.33942e-05
0.000168358
0.000144322
0.000114339
2.05895e-05
2.3733e-06
1.88264e-07
2.28909e-08
3.71666e-09
5.60665e-07
3.09166e-05
0.000162793
0.000136186
0.000125205
3.27783e-05
4.28599e-06
5.50259e-07
4.10665e-08
5.26056e-08
5.01649e-07
2.79129e-05
0.000159106
0.000127373
0.000136928
5.39254e-05
8.03314e-06
9.56269e-07
1.63639e-07
1.32684e-08
3.77227e-07
2.26479e-05
0.000153055
0.000117554
0.000147768
7.88668e-05
1.73714e-05
2.89065e-06
3.52892e-07
1.64974e-07
2.77394e-07
1.79703e-05
0.000147798
0.000106688
0.000164053
0.000107407
2.89283e-05
5.76726e-06
1.21972e-06
2.45084e-07
2.258e-07
1.22213e-05
0.000137662
9.44723e-05
0.000176835
0.000145782
5.49591e-05
1.42641e-05
3.15104e-06
6.0649e-07
3.63512e-07
9.00982e-06
0.000129724
0.00379934
8.23564e-05
6.73076e-05
6.72662e-05
6.72686e-05
6.7268e-05
6.72659e-05
6.73066e-05
8.23301e-05
0.00380109
0.0022242
5.22575e-06
1.26273e-06
1.23719e-06
1.23615e-06
1.23589e-06
1.23928e-06
1.26025e-06
5.20162e-06
0.00222987
0.00144644
3.41396e-06
3.68636e-09
3.58372e-09
3.66947e-09
3.5187e-09
3.4835e-09
3.77095e-09
3.32486e-06
0.00145027
0.00102526
2.68673e-06
2.05636e-12
7.82505e-13
6.69209e-13
9.99806e-13
1.1056e-12
2.37423e-12
2.54507e-06
0.00102868
0.000778083
3.24049e-06
1.70289e-11
7.84039e-18
3.95082e-18
2.63653e-17
1.21086e-16
1.20417e-11
3.48565e-06
0.000780676
0.00062235
3.33747e-06
3.76116e-10
6.80743e-18
3.99784e-19
1.21505e-18
5.43693e-17
1.46907e-10
3.90209e-06
0.00062436
0.000517415
6.0584e-06
8.12751e-09
2.85366e-15
1.11008e-14
1.10532e-16
2.00067e-14
9.8571e-10
5.71981e-06
0.000519216
0.000443176
1.18085e-05
4.38053e-08
2.5632e-13
8.91402e-14
1.27875e-14
3.15448e-14
1.69039e-09
1.05767e-05
0.000444885
0.000388915
1.45665e-05
1.18125e-07
5.82398e-11
2.85281e-12
7.7255e-14
3.8825e-13
6.65719e-09
1.2693e-05
0.00039078
0.000347734
1.10466e-05
1.1287e-07
5.50435e-11
3.23736e-12
8.31975e-13
1.58521e-12
9.73395e-09
1.56599e-05
0.000349795
0.000315183
1.33016e-05
1.18752e-07
1.52414e-10
1.35442e-11
1.41998e-12
7.3541e-12
2.69121e-08
1.75491e-05
0.000317334
0.000289237
1.75035e-05
2.33403e-07
2.15358e-10
2.1118e-11
2.19172e-12
6.62051e-12
2.40006e-08
1.80085e-05
0.00029167
0.000267909
1.90254e-05
3.22873e-07
5.86703e-10
8.2232e-11
4.99213e-12
4.26009e-11
2.4791e-08
1.81813e-05
0.000270843
0.000250001
2.53686e-05
4.44225e-07
1.87723e-09
1.47648e-10
1.26383e-11
1.33217e-10
5.09339e-08
2.00131e-05
0.000253509
0.000234873
3.13126e-05
7.95558e-07
3.48938e-09
4.65369e-10
5.69306e-11
4.35139e-10
7.89096e-08
1.98201e-05
0.000238893
0.000221788
3.81126e-05
1.04948e-06
1.09992e-08
1.94285e-09
2.37823e-10
1.50651e-09
1.21575e-07
2.29546e-05
0.000226489
0.000210393
4.60836e-05
1.4338e-06
1.82178e-08
5.04752e-09
4.89171e-10
3.32143e-09
2.24501e-07
2.69619e-05
0.000215708
0.00020027
5.49897e-05
2.34746e-06
4.30863e-08
6.42762e-09
1.24131e-09
6.47736e-09
3.12834e-07
3.04114e-05
0.000206607
0.000191139
6.38989e-05
3.23665e-06
8.60438e-08
1.78326e-08
2.97755e-09
1.00055e-08
4.34031e-07
3.33794e-05
0.000198307
0.000182718
7.02817e-05
4.9318e-06
1.76043e-07
1.78855e-08
4.65106e-09
1.31506e-08
5.95038e-07
3.50449e-05
0.000191396
0.000174841
7.85814e-05
6.75138e-06
3.18306e-07
4.00421e-08
7.6471e-09
1.82398e-08
6.83829e-07
3.60801e-05
0.000184667
0.000167261
8.49676e-05
9.68165e-06
5.53018e-07
4.17725e-08
1.32724e-08
2.31157e-08
7.0977e-07
3.56075e-05
0.000179288
0.000159848
9.75668e-05
1.30138e-05
9.781e-07
8.69637e-08
1.87321e-08
3.39329e-08
6.94822e-07
3.47624e-05
0.000173494
0.000152346
0.00010483
1.88805e-05
1.89002e-06
1.40619e-07
3.07237e-08
4.18062e-08
6.40702e-07
3.26604e-05
0.000169171
0.00014463
0.000123001
2.484e-05
2.94987e-06
3.37613e-07
4.98883e-08
7.42584e-08
5.89504e-07
2.9861e-05
0.000163607
0.000136546
0.000131758
3.97344e-05
5.74915e-06
6.55836e-07
1.30168e-07
9.61902e-08
5.22953e-07
2.62114e-05
0.000159837
0.000127817
0.000141644
6.01361e-05
1.01471e-05
1.55493e-06
2.37362e-07
1.65402e-07
4.75013e-07
2.20474e-05
0.000153295
0.000118301
0.00015297
8.48299e-05
2.03886e-05
3.36716e-06
6.97721e-07
2.63204e-07
4.11616e-07
1.66396e-05
0.000148966
0.000107821
0.000165592
0.000111367
3.17175e-05
7.03091e-06
1.43537e-06
4.14862e-07
7.25375e-07
1.30007e-05
0.000138062
9.67548e-05
0.000179705
0.000145891
5.74341e-05
1.58612e-05
4.20365e-06
1.3193e-06
5.62644e-07
7.62137e-06
0.000131618
0.00380051
8.24456e-05
6.73524e-05
6.73074e-05
6.7309e-05
6.73092e-05
6.73071e-05
6.73513e-05
8.24198e-05
0.00380222
0.00222959
5.29284e-06
1.3071e-06
1.26278e-06
1.25884e-06
1.25964e-06
1.2627e-06
1.30644e-06
5.25891e-06
0.0022352
0.00145269
2.97275e-06
4.80053e-09
3.81661e-09
3.75414e-09
3.81316e-09
3.83359e-09
4.8471e-09
3.53044e-06
0.00145676
0.00103116
3.05794e-06
2.09561e-12
2.1337e-12
2.32921e-12
2.39012e-12
2.20095e-12
2.17605e-12
2.6479e-06
0.00103474
0.000782991
3.893e-06
7.46329e-11
9.35819e-12
1.32625e-11
1.16117e-11
1.22736e-11
4.09995e-11
3.65122e-06
0.000785495
0.000625875
4.58803e-06
7.73594e-10
2.75521e-10
9.88027e-11
2.56838e-10
1.59144e-10
6.19224e-10
4.33232e-06
0.000628019
0.000520706
4.60861e-06
2.31168e-09
3.87485e-10
3.38654e-09
4.80997e-10
1.33251e-09
3.23743e-09
4.83626e-06
0.000522441
0.000446417
6.73036e-06
1.34187e-08
2.28031e-09
4.15813e-09
4.68602e-09
2.2384e-09
3.94969e-09
5.96563e-06
0.00044795
0.000390889
1.36053e-05
7.46523e-08
6.30037e-09
2.11414e-08
9.86128e-09
9.81243e-09
1.59456e-08
7.29903e-06
0.000393362
0.000349388
1.19308e-05
9.01682e-08
2.66076e-08
1.80671e-08
1.96155e-08
9.87539e-09
6.84463e-08
1.00873e-05
0.000351108
0.000316802
1.05024e-05
9.6391e-08
1.62371e-08
2.42536e-08
2.00692e-08
1.99062e-08
4.6994e-08
9.66273e-06
0.000318483
0.000290701
1.01798e-05
9.71154e-08
3.6748e-08
2.91446e-08
3.39709e-08
2.81124e-08
5.82911e-08
9.61905e-06
0.000292505
0.000269245
1.31938e-05
1.80672e-07
3.89237e-08
3.07041e-08
3.84731e-08
4.68057e-08
8.35966e-08
1.25013e-05
0.000271117
0.000251301
2.13608e-05
3.97362e-07
4.39714e-08
6.5782e-08
4.98567e-08
1.08541e-07
1.72732e-07
1.72169e-05
0.000253334
0.000236069
2.71532e-05
6.88491e-07
7.05744e-08
1.09238e-07
7.56542e-08
1.97789e-07
3.38151e-07
2.16089e-05
0.000238443
0.000222925
3.41019e-05
1.06542e-06
1.47939e-07
2.47855e-07
1.30342e-07
4.29671e-07
5.1291e-07
2.90334e-05
0.000225869
0.00021144
4.36677e-05
1.50752e-06
2.22913e-07
3.97854e-07
2.055e-07
6.65771e-07
8.45988e-07
2.87607e-05
0.000214996
0.00020126
4.93291e-05
2.39356e-06
5.41512e-07
8.25037e-07
4.09899e-07
1.0064e-06
1.08307e-06
3.39051e-05
0.000205848
0.000192074
5.82992e-05
3.19912e-06
7.82553e-07
1.34925e-06
7.59425e-07
1.35994e-06
1.57918e-06
3.96091e-05
0.000197578
0.000183609
6.18804e-05
4.55598e-06
1.45343e-06
1.76188e-06
1.34222e-06
1.78734e-06
1.88674e-06
4.22532e-05
0.000190722
0.000175667
7.26591e-05
5.974e-06
1.89175e-06
2.05931e-06
1.37444e-06
2.01985e-06
2.14343e-06
4.27925e-05
0.000184035
0.000167998
7.94629e-05
8.88414e-06
3.23851e-06
2.74317e-06
2.33089e-06
2.52749e-06
2.38736e-06
4.23917e-05
0.000178777
0.000160457
9.22124e-05
1.21076e-05
3.16932e-06
2.76642e-06
2.16291e-06
2.59363e-06
2.81993e-06
4.03896e-05
0.000172968
0.00015276
0.000100797
1.82611e-05
4.22779e-06
2.88243e-06
2.59092e-06
3.1089e-06
3.16865e-06
3.86717e-05
0.000168827
0.000144773
0.000121414
2.42361e-05
5.85446e-06
3.91777e-06
2.98005e-06
3.82418e-06
4.08419e-06
3.54504e-05
0.000163292
0.000136245
0.000132811
4.00573e-05
8.78195e-06
4.79562e-06
4.30169e-06
4.85606e-06
4.61262e-06
3.20632e-05
0.000159638
0.000126836
0.000144098
6.15942e-05
1.47322e-05
7.45076e-06
5.32827e-06
5.99358e-06
6.22177e-06
2.86326e-05
0.000153595
0.00011613
0.000159931
9.02874e-05
2.47274e-05
1.00498e-05
7.8691e-06
7.62043e-06
7.12684e-06
2.482e-05
0.00014855
0.000104534
0.000175538
0.000125111
4.19461e-05
1.80643e-05
1.09364e-05
1.04751e-05
1.00039e-05
1.99462e-05
0.000139801
9.57475e-05
0.000196521
0.00016575
7.73574e-05
2.98851e-05
1.71895e-05
1.43464e-05
1.29305e-05
2.3897e-05
0.000130582
0.00380481
9.92892e-05
8.24236e-05
8.23342e-05
8.23473e-05
8.23474e-05
8.23344e-05
8.24236e-05
9.92678e-05
0.00380639
0.00224089
1.42497e-05
5.26241e-06
5.20164e-06
5.20962e-06
5.21009e-06
5.20318e-06
5.26189e-06
1.41819e-05
0.00224612
0.00146236
9.88836e-06
3.53564e-06
3.38751e-06
3.33957e-06
3.34591e-06
3.37882e-06
3.55756e-06
9.90918e-06
0.0014667
0.00103889
1.5387e-05
2.60834e-06
2.59948e-06
2.56262e-06
2.56499e-06
2.64939e-06
2.66666e-06
1.51018e-05
0.00104345
0.000787659
1.87057e-05
3.31875e-06
2.90474e-06
3.60159e-06
3.52509e-06
3.20815e-06
3.71482e-06
1.91949e-05
0.000790897
0.0006267
2.70773e-05
4.05948e-06
4.04642e-06
3.59654e-06
4.7639e-06
3.33401e-06
4.36495e-06
2.24746e-05
0.00063065
0.00051883