/*--------------------------------*- C++ -*----------------------------------*\
| =========                 |                                                 |
| \\      /  F ield         | OpenFOAM: The Open Source CFD Toolbox           |
|  \\    /   O peration     | Version:  4.1                                   |
|   \\  /    A nd           | Web:      www.OpenFOAM.org                      |
|    \\/     M anipulation  |                                                 |
\*---------------------------------------------------------------------------*/
FoamFile
{
    version     2.0;
    format      ascii;
    class       volScalarField;
    location    "600";
    object      p;
}
// * * * * * * * * * * * * * * * * * * * * * * * * * * * * * * * * * * * * * //

dimensions      [0 2 -2 0 0 0 0];

internalField   nonuniform List<scalar> 
12000
(
0.0764344
0.0767138
0.0763779
0.0762572
0.0762195
0.076218
0.0762528
0.0763709
0.0767042
0.0764215
0.0758682
0.0758523
0.0757902
0.0757928
0.0757794
0.0757777
0.0757881
0.0757828
0.0758422
0.075855
0.075749
0.0755121
0.0755751
0.0756237
0.0756257
0.0756238
0.0756182
0.0755664
0.0755002
0.0757341
0.0757197
0.0754557
0.0755408
0.0755691
0.0755691
0.0755669
0.0755624
0.0755303
0.0754416
0.075702
0.0756226
0.0754032
0.0754892
0.0754925
0.0754899
0.0754871
0.0754842
0.0754762
0.0753863
0.0756012
0.0754994
0.075325
0.0754071
0.0753973
0.0753967
0.0753933
0.0753868
0.0753907
0.0753033
0.0754724
0.0753974
0.0752562
0.0753309
0.0753132
0.0753155
0.0753113
0.0753
0.0753099
0.0752287
0.0753631
0.0753222
0.0752067
0.075272
0.0752477
0.0752515
0.0752461
0.075231
0.0752451
0.0751721
0.0752785
0.0752631
0.075168
0.0752237
0.0751948
0.0751983
0.0751912
0.0751732
0.075189
0.0751234
0.0752073
0.0752139
0.0751343
0.0751809
0.0751491
0.0751508
0.0751416
0.0751205
0.0751356
0.0750759
0.0751419
0.0751735
0.075105
0.0751426
0.0751082
0.0751075
0.0750953
0.0750706
0.0750834
0.0750281
0.0750804
0.0751419
0.0750802
0.0751101
0.0750729
0.0750678
0.0750516
0.075023
0.0750321
0.0749796
0.0750215
0.0751192
0.0750614
0.075083
0.0750424
0.0750312
0.0750101
0.074977
0.074981
0.0749298
0.0749633
0.0751061
0.0750497
0.0750614
0.0750156
0.0749972
0.0749702
0.0749311
0.0749285
0.074877
0.0749029
0.0751029
0.0750455
0.0750465
0.0749934
0.0749661
0.0749309
0.0748841
0.0748731
0.0748195
0.0748385
0.0751111
0.0750504
0.0750389
0.0749766
0.0749377
0.0748914
0.0748347
0.0748133
0.0747555
0.0747677
0.075133
0.0750665
0.0750399
0.0749653
0.0749112
0.0748508
0.0747812
0.0747468
0.0746825
0.0746874
0.0751707
0.0750964
0.0750509
0.0749597
0.0748863
0.0748078
0.0747215
0.0746708
0.0745968
0.0745936
0.0752267
0.0751428
0.0750733
0.0749606
0.0748629
0.0747611
0.074653
0.0745815
0.0744936
0.0744809
0.0753029
0.0752088
0.075109
0.0749687
0.0748406
0.0747091
0.0745725
0.0744741
0.0743668
0.0743422
0.0754002
0.0752972
0.07516
0.0749851
0.0748192
0.0746498
0.0744758
0.0743419
0.0742076
0.0741677
0.0755169
0.0754091
0.0752283
0.075011
0.0747988
0.0745814
0.0743579
0.0741765
0.0740041
0.0739433
0.0756465
0.0755418
0.0753153
0.0750481
0.0747799
0.0745017
0.0742129
0.0739661
0.073739
0.0736482
0.075776
0.0756854
0.0754215
0.0750995
0.0747645
0.0744091
0.074033
0.0736944
0.073386
0.0732493
0.0758868
0.0758209
0.0755451
0.0751708
0.0747568
0.074303
0.0738093
0.0733385
0.0729035
0.0726908
0.0759612
0.0759263
0.0756837
0.0752714
0.0747648
0.0741847
0.0735301
0.0728642
0.0722223
0.0718725
0.0759984
0.075993
0.0758327
0.0754086
0.0747981
0.0740578
0.0731833
0.0722241
0.0712248
0.0705815
0.0760275
0.0760668
0.0759946
0.0755739
0.0748569
0.0739207
0.0727447
0.0713345
0.0697056
0.0683513
0.0760371
0.0761098
0.0760739
0.07568
0.0748987
0.073765
0.0722093
0.0700995
0.067372
0.0637489
0.0759931
0.076042
0.0759461
0.0755427
0.0747562
0.0734499
0.0714375
0.0681699
0.0638206
0.0530545
0.0767151
0.0767497
0.0764195
0.0763013
0.0762614
0.0762598
0.0762969
0.0764126
0.0767406
0.0767012
0.0758536
0.0758049
0.0757696
0.0757764
0.0757613
0.0757597
0.0757718
0.0757622
0.075795
0.0758402
0.0755136
0.0752961
0.0753808
0.0754361
0.075437
0.0754352
0.0754307
0.0753725
0.0752848
0.0754983
0.0754577
0.0751992
0.0752999
0.0753281
0.0753263
0.0753241
0.0753216
0.0752897
0.0751853
0.0754395
0.0754058
0.0751822
0.0752855
0.0752823
0.0752782
0.0752755
0.0752741
0.0752727
0.0751649
0.0753838
0.0753283
0.075144
0.0752457
0.0752268
0.0752274
0.0752239
0.0752165
0.0752296
0.0751223
0.0753003
0.0752604
0.0751065
0.0751992
0.0751715
0.0751772
0.0751728
0.0751581
0.0751785
0.0750785
0.075225
0.0752121
0.0750829
0.0751633
0.0751287
0.0751366
0.0751311
0.0751113
0.0751363
0.0750466
0.0751676
0.075175
0.0750666
0.075135
0.0750957
0.0751035
0.0750963
0.075073
0.0750999
0.0750197
0.0751179
0.0751433
0.0750509
0.0751085
0.0750665
0.0750728
0.0750635
0.0750369
0.0750628
0.0749906
0.075069
0.0751166
0.075036
0.075083
0.0750393
0.0750427
0.0750307
0.0750007
0.0750235
0.0749578
0.0750197
0.0750951
0.0750239
0.0750604
0.0750145
0.0750136
0.074998
0.0749643
0.0749823
0.0749216
0.0749699
0.0750802
0.0750154
0.0750416
0.0749927
0.0749858
0.0749655
0.0749274
0.0749393
0.0748816
0.0749185
0.0750734
0.0750114
0.0750268
0.074974
0.0749593
0.0749327
0.0748892
0.0748936
0.0748369
0.0748636
0.0750752
0.0750135
0.0750171
0.0749585
0.0749338
0.074899
0.0748485
0.0748437
0.0747856
0.0748039
0.0750872
0.0750232
0.0750136
0.0749465
0.0749093
0.0748638
0.074804
0.0747879
0.0747258
0.0747368
0.0751115
0.0750424
0.0750171
0.0749383
0.0748855
0.0748262
0.074754
0.0747241
0.0746554
0.0746588
0.0751503
0.0750736
0.075029
0.0749345
0.0748621
0.0747848
0.0746964
0.0746494
0.0745709
0.0745659
0.0752055
0.0751193
0.0750507
0.0749356
0.0748386
0.0747383
0.0746285
0.0745598
0.0744673
0.0744525
0.075279
0.0751821
0.0750839
0.074942
0.0748145
0.0746847
0.0745467
0.07445
0.074338
0.0743114
0.0753716
0.0752644
0.0751301
0.0749546
0.0747891
0.0746217
0.0744466
0.0743134
0.0741741
0.074132
0.0754821
0.0753673
0.0751908
0.0749739
0.074762
0.0745464
0.0743224
0.0741406
0.0739625
0.0738995
0.0756061
0.0754895
0.075267
0.075001
0.0747327
0.074456
0.0741668
0.0739184
0.0736843
0.073591
0.075734
0.0756252
0.0753595
0.0750379
0.0747023
0.0743475
0.0739706
0.0736286
0.0733106
0.0731708
0.0758506
0.0757627
0.0754683
0.0750888
0.0746734
0.0742192
0.073723
0.0732455
0.0727956
0.0725778
0.0759395
0.0758845
0.0755927
0.0751603
0.0746518
0.0740708
0.0734107
0.0727314
0.0720628
0.0717024
0.0759919
0.0759725
0.0757269
0.0752586
0.0746458
0.0739059
0.07302
0.0720344
0.0709819
0.0703106
0.0760149
0.0760315
0.0758588
0.0753753
0.0746556
0.0737233
0.0725283
0.071071
0.0693312
0.0678962
0.0759992
0.0760365
0.0759154
0.0754479
0.0746568
0.0735221
0.0719314
0.0697381
0.0667921
0.0629131
0.0759594
0.0759367
0.0757469
0.0752912
0.0744965
0.0731952
0.0711568
0.0677401
0.0630961
0.05152
0.0763805
0.0764208
0.0761132
0.0759904
0.0759489
0.0759474
0.075986
0.0761064
0.0764119
0.0763659
0.0757927
0.0757709
0.0757417
0.0757436
0.0757284
0.0757268
0.0757389
0.0757344
0.075761
0.0757792
0.075578
0.0753823
0.0754675
0.0755214
0.0755228
0.075521
0.075516
0.0754592
0.075371
0.075563
0.0755444
0.0753017
0.075401
0.0754279
0.0754259
0.0754236
0.0754214
0.0753909
0.0752879
0.0755266
0.0754938
0.0752878
0.0753926
0.0753869
0.0753821
0.0753794
0.0753787
0.0753799
0.0752705
0.0754719
0.0754129
0.0752485
0.0753559
0.0753347
0.0753358
0.0753323
0.0753244
0.07534
0.075227
0.0753854
0.0753382
0.0752028
0.075303
0.0752734
0.0752812
0.0752768
0.07526
0.0752825
0.0751752
0.0753032
0.0752815
0.0751678
0.0752558
0.0752193
0.07523
0.0752244
0.0752018
0.0752291
0.075132
0.075237
0.0752362
0.0751409
0.0752166
0.0751749
0.0751858
0.0751787
0.0751521
0.0751817
0.0750943
0.0751794
0.075197
0.0751161
0.0751806
0.0751358
0.0751455
0.0751363
0.0751063
0.0751349
0.0750558
0.0751238
0.0751635
0.0750927
0.0751463
0.0750998
0.0751067
0.0750949
0.0750614
0.0750867
0.0750147
0.0750686
0.0751365
0.0750731
0.0751152
0.0750668
0.0750696
0.0750543
0.0750172
0.0750375
0.0749712
0.0750136
0.0751169
0.0750581
0.0750889
0.0750377
0.0750347
0.0750147
0.0749735
0.0749874
0.074925
0.0749575
0.0751054
0.0750482
0.0750677
0.0750131
0.075002
0.0749756
0.0749294
0.0749354
0.0748749
0.0748987
0.075103
0.0750448
0.0750521
0.0749921
0.0749707
0.0749362
0.0748834
0.0748798
0.074819
0.0748352
0.0751109
0.0750494
0.0750428
0.0749747
0.0749406
0.0748955
0.0748339
0.0748189
0.0747554
0.074764
0.075131
0.0750635
0.0750405
0.0749612
0.0749113
0.0748527
0.0747792
0.0747504
0.0746812
0.074682
0.0751651
0.0750892
0.0750466
0.0749518
0.0748826
0.0748062
0.0747169
0.074671
0.0745928
0.074585
0.0752151
0.0751286
0.0750621
0.0749471
0.0748536
0.0747545
0.0746441
0.0745767
0.0744851
0.0744675
0.0752823
0.0751839
0.0750883
0.0749471
0.0748235
0.0746952
0.0745571
0.0744621
0.0743513
0.0743217
0.075367
0.075257
0.0751262
0.074952
0.0747911
0.0746256
0.0744509
0.0743199
0.0741819
0.0741368
0.0754676
0.0753485
0.0751767
0.0749619
0.0747551
0.0745423
0.0743191
0.0741402
0.0739634
0.073897
0.0755799
0.0754569
0.07524
0.0749768
0.0747145
0.0744414
0.0741536
0.0739088
0.0736756
0.0735785
0.0756957
0.0755777
0.0753162
0.0749975
0.0746689
0.074319
0.0739442
0.0736065
0.0732883
0.0731438
0.0758044
0.0757016
0.075404
0.0750259
0.0746193
0.0741722
0.0736789
0.0732057
0.0727533
0.0725285
0.0758947
0.0758163
0.0755017
0.0750662
0.0745698
0.0740001
0.073344
0.0726677
0.0719908
0.0716184
0.0759578
0.0759092
0.0756062
0.0751244
0.0745302
0.0738091
0.0729296
0.0719431
0.0708678
0.0701719
0.0759928
0.0759727
0.0757097
0.0752045
0.0745154
0.0736155
0.0724309
0.0709646
0.0691662
0.0676735
0.076004
0.0760016
0.0757913
0.0753109
0.0745668
0.0734822
0.0719095
0.069698
0.0666218
0.0625836
0.0760064
0.075987
0.0758149
0.0754344
0.0747321
0.0734954
0.0714776
0.0680292
0.0631641
0.0511448
0.0762613
0.0763039
0.0759917
0.075868
0.0758262
0.0758247
0.0758637
0.0759849
0.076295
0.0762463
0.0757968
0.075779
0.0757449
0.0757472
0.0757321
0.0757305
0.0757426
0.0757376
0.0757692
0.0757831
0.0756281
0.0754391
0.0755229
0.0755791
0.0755806
0.0755788
0.0755738
0.0755146
0.0754277
0.0756131
0.0755744
0.0753317
0.0754297
0.0754585
0.0754562
0.075454
0.0754521
0.0754197
0.075318
0.0755567
0.0754993
0.0752868
0.0753891
0.0753834
0.0753779
0.0753752
0.0753753
0.0753765
0.0752697
0.0754775
0.0754059
0.0752326
0.0753375
0.0753152
0.0753155
0.0753121
0.0753048
0.0753216
0.075211
0.0753785
0.0753243
0.0751788
0.0752771
0.0752456
0.0752532
0.0752489
0.0752323
0.0752565
0.0751512
0.0752893
0.0752622
0.0751382
0.075224
0.0751848
0.0751956
0.0751901
0.0751674
0.0751973
0.0751025
0.0752175
0.0752138
0.0751082
0.0751812
0.0751363
0.0751474
0.0751403
0.0751136
0.0751463
0.0750619
0.0751561
0.0751738
0.0750828
0.0751441
0.0750965
0.0751062
0.0750971
0.0750669
0.0750988
0.0750228
0.0750988
0.075141
0.0750605
0.0751106
0.0750617
0.0750687
0.0750569
0.0750233
0.0750515
0.0749826
0.0750435
0.0751152
0.0750423
0.0750813
0.0750312
0.0750337
0.0750183
0.0749812
0.0750041
0.0749407
0.0749894
0.0750968
0.0750292
0.0750571
0.0750049
0.0750012
0.0749811
0.07494
0.0749563
0.0748964
0.0749346
0.0750864
0.0750215
0.0750383
0.0749829
0.0749709
0.0749447
0.0748987
0.0749068
0.0748482
0.074877
0.0750851
0.0750203
0.0750248
0.0749644
0.0749422
0.0749079
0.0748554
0.0748538
0.0747943
0.0748145
0.075094
0.0750267
0.0750173
0.0749492
0.0749144
0.0748696
0.0748083
0.0747951
0.0747324
0.0747443
0.0751147
0.0750423
0.0750164
0.0749376
0.0748871
0.0748288
0.0747557
0.0747283
0.0746598
0.0746631
0.0751488
0.0750687
0.0750232
0.0749296
0.0748598
0.0747839
0.074695
0.0746502
0.0745724
0.0745665
0.0751979
0.075108
0.0750387
0.0749254
0.0748315
0.0747331
0.0746233
0.0745566
0.0744651
0.0744487
0.0752631
0.0751621
0.0750637
0.0749249
0.0748012
0.0746738
0.0745365
0.074442
0.0743309
0.0743019
0.0753446
0.0752325
0.0750991
0.0749279
0.0747673
0.074603
0.0744294
0.0742988
0.0741601
0.0741149
0.0754408
0.0753197
0.0751454
0.074934
0.0747284
0.074517
0.0742952
0.0741165
0.0739386
0.0738715
0.0755479
0.0754225
0.0752027
0.074943
0.0746828
0.0744116
0.0741255
0.073881
0.073646
0.0735474
0.0756592
0.0755372
0.0752713
0.0749554
0.0746298
0.0742827
0.0739099
0.0735723
0.0732513
0.0731043
0.0757664
0.0756567
0.0753507
0.0749736
0.0745712
0.0741281
0.0736373
0.0731637
0.0727066
0.0724776
0.0758609
0.0757715
0.0754411
0.0750034
0.0745133
0.0739497
0.0732969
0.0726191
0.0719336
0.0715532
0.0759359
0.0758726
0.0755433
0.0750568
0.0744731
0.0737623
0.0728873
0.0718974
0.0708062
0.0700949
0.0759906
0.0759539
0.0756583
0.075153
0.0744834
0.0736001
0.0724223
0.0709501
0.0691238
0.0676012
0.0760305
0.0760146
0.0757893
0.0753311
0.0746214
0.0735608
0.071998
0.0697815
0.0666687
0.0625909
0.0760593
0.0760493
0.0759354
0.0756307
0.0749775
0.0737613
0.0717512
0.0683048
0.0634143
0.0514237
0.076225
0.0762654
0.0759517
0.0758277
0.0757858
0.0757843
0.0758233
0.0759449
0.0762565
0.07621
0.0757849
0.0757655
0.0757313
0.0757336
0.0757184
0.0757168
0.075729
0.0757241
0.0757556
0.0757712
0.0756318
0.0754418
0.0755261
0.0755824
0.0755839
0.0755821
0.0755771
0.0755178
0.0754305
0.0756168
0.0755767
0.0753321
0.0754298
0.0754583
0.0754557
0.0754535
0.0754519
0.0754198
0.0753184
0.0755589
0.0754995
0.0752855
0.075387
0.0753806
0.0753746
0.0753719
0.0753725
0.0753744
0.0752684
0.0754776
0.0754091
0.0752365
0.075342
0.0753191
0.0753191
0.0753156
0.0753087
0.075326
0.075215
0.0753815
0.0753313
0.0751891
0.0752894
0.0752578
0.0752655
0.0752611
0.0752444
0.0752688
0.0751614
0.0752961
0.0752717
0.0751522
0.0752409
0.0752017
0.0752131
0.0752076
0.0751844
0.0752141
0.0751165
0.0752265
0.0752247
0.0751237
0.0752
0.0751553
0.0751672
0.0751602
0.0751328
0.0751653
0.0750776
0.0751664
0.0751857
0.0750993
0.0751639
0.0751165
0.0751274
0.0751183
0.0750872
0.0751188
0.0750396
0.0751101
0.0751531
0.0750774
0.0751309
0.0750821
0.0750904
0.0750786
0.0750439
0.0750721
0.0749997
0.0750554
0.075127
0.0750589
0.0751014
0.0750512
0.075055
0.0750397
0.0750014
0.0750242
0.0749573
0.0750022
0.075108
0.0750448
0.0750762
0.0750238
0.0750214
0.0750014
0.0749591
0.0749753
0.074912
0.074948
0.0750971
0.075036
0.0750558
0.075
0.0749895
0.0749635
0.0749163
0.0749247
0.0748629
0.0748899
0.0750949
0.0750333
0.0750407
0.0749797
0.0749591
0.074925
0.0748714
0.0748704
0.0748079
0.0748264
0.0751026
0.0750381
0.0750313
0.0749627
0.0749295
0.0748849
0.0748226
0.0748101
0.0747449
0.074755
0.0751218
0.0750517
0.0750285
0.0749491
0.0749003
0.0748422
0.0747681
0.0747416
0.0746708
0.0746727
0.0751542
0.075076
0.0750332
0.0749391
0.0748708
0.0747953
0.0747055
0.0746616
0.074582
0.0745749
0.0752013
0.0751129
0.0750463
0.0749326
0.0748402
0.0747422
0.0746317
0.0745661
0.0744731
0.0744558
0.075264
0.0751641
0.0750684
0.0749294
0.0748072
0.0746805
0.0745426
0.0744493
0.0743371
0.0743073
0.0753427
0.0752311
0.0751004
0.0749292
0.0747702
0.0746068
0.0744328
0.0743035
0.074164
0.0741182
0.0754357
0.0753146
0.0751426
0.0749316
0.0747275
0.0745172
0.0742954
0.0741181
0.0739397
0.0738721
0.0755398
0.0754136
0.0751954
0.0749362
0.0746776
0.0744076
0.0741218
0.0738788
0.0736436
0.0735445
0.075649
0.0755252
0.0752591
0.0749436
0.0746197
0.0742741
0.0739018
0.0735658
0.0732447
0.0730971
0.0757562
0.0756434
0.0753343
0.0749567
0.0745561
0.0741149
0.0736249
0.0731527
0.0726954
0.0724654
0.0758537
0.0757601
0.0754222
0.0749826
0.0744947
0.0739339
0.0732821
0.0726053
0.0719188
0.0715367
0.0759349
0.0758669
0.075526
0.0750363
0.0744564
0.0737499
0.0728765
0.0718868
0.070793
0.0700784
0.0759978
0.0759572
0.0756495
0.0751429
0.0744807
0.0736045
0.0724296
0.0709571
0.0691258
0.0675974
0.0760451
0.0760267
0.0757999
0.0753511
0.0746559
0.0736074
0.0720515
0.0698366
0.0667191
0.0626267
0.0760796
0.0760713
0.0759844
0.0757127
0.0750852
0.0738879
0.0718919
0.0684539
0.0635627
0.0515281
0.076225
0.0762655
0.0759517
0.0758277
0.0757858
0.0757843
0.0758234
0.075945
0.0762565
0.0762101
0.0757849
0.0757655
0.0757314
0.0757336
0.0757184
0.0757168
0.075729
0.0757241
0.0757556
0.0757712
0.0756318
0.0754418
0.0755261
0.0755824
0.0755839
0.0755821
0.0755771
0.0755178
0.0754305
0.0756169
0.0755766
0.0753321
0.0754298
0.0754583
0.0754557
0.0754535
0.0754519
0.0754198
0.0753184
0.0755589
0.0754995
0.0752855
0.0753871
0.0753806
0.0753746
0.0753719
0.0753725
0.0753745
0.0752684
0.0754776
0.075409
0.0752366
0.0753421
0.0753191
0.0753191
0.0753156
0.0753087
0.075326
0.075215
0.0753814
0.0753312
0.0751892
0.0752895
0.0752579
0.0752655
0.0752611
0.0752444
0.0752688
0.0751614
0.0752961
0.0752715
0.0751523
0.0752409
0.0752018
0.0752131
0.0752076
0.0751844
0.0752141
0.0751165
0.0752265
0.0752244
0.0751239
0.0752001
0.0751554
0.0751673
0.0751602
0.0751328
0.0751653
0.0750777
0.0751663
0.0751855
0.0750995
0.0751639
0.0751166
0.0751274
0.0751183
0.0750872
0.0751188
0.0750395
0.0751101
0.0751531
0.0750775
0.0751308
0.0750821
0.0750903
0.0750786
0.0750439
0.0750719
0.0749996
0.0750557
0.0751271
0.0750589
0.0751012
0.0750511
0.0750549
0.0750397
0.0750013
0.0750242
0.0749573
0.0750023
0.0751082
0.0750448
0.075076
0.0750237
0.0750213
0.0750013
0.074959
0.0749756
0.0749122
0.0749474
0.0750973
0.075036
0.0750556
0.0749999
0.0749894
0.0749633
0.0749161
0.0749248
0.0748629
0.0748895
0.075095
0.0750333
0.0750404
0.0749796
0.0749589
0.0749248
0.0748711
0.07487
0.0748077
0.0748265
0.0751027
0.075038
0.0750311
0.0749626
0.0749293
0.0748848
0.0748223
0.0748096
0.0747446
0.0747552
0.0751219
0.0750516
0.0750283
0.0749491
0.0749001
0.074842
0.0747678
0.0747412
0.0746705
0.0746727
0.0751542
0.0750759
0.075033
0.0749391
0.0748707
0.0747951
0.0747053
0.0746613
0.0745816
0.0745748
0.0752012
0.0751127
0.0750461
0.0749325
0.07484
0.074742
0.0746315
0.0745658
0.0744727
0.0744555
0.0752638
0.0751638
0.0750682
0.0749293
0.074807
0.0746802
0.0745423
0.0744489
0.0743366
0.0743068
0.0753424
0.0752308
0.0751
0.0749289
0.0747699
0.0746063
0.0744324
0.074303
0.0741634
0.0741176
0.0754353
0.0753141
0.0751421
0.0749311
0.074727
0.0745166
0.0742948
0.0741175
0.073939
0.0738714
0.0755391
0.075413
0.0751947
0.0749355
0.0746768
0.0744068
0.074121
0.073878
0.0736426
0.0735436
0.0756482
0.0755244
0.0752583
0.0749427
0.0746187
0.074273
0.0739007
0.0735646
0.0732434
0.0730958
0.0757553
0.0756424
0.0753332
0.0749555
0.0745548
0.0741134
0.0736233
0.073151
0.0726935
0.0724635
0.0758528
0.075759
0.0754209
0.074981
0.0744929
0.0739318
0.0732798
0.0726027
0.071916
0.071534
0.0759341
0.075866
0.0755244
0.0750343
0.0744539
0.0737469
0.0728731
0.071883
0.0707889
0.0700743
0.0759973
0.0759564
0.0756477
0.0751403
0.0744772
0.0736003
0.0724246
0.0709514
0.0691194
0.0675911
0.0760448
0.0760261
0.0757979
0.0753476
0.0746511
0.0736013
0.0720443
0.0698281
0.0667091
0.0626173
0.0760794
0.0760707
0.0759819
0.0757081
0.0750785
0.0738792
0.0718813
0.0684413
0.0635477
0.0515142
0.0762612
0.076304
0.0759918
0.0758681
0.0758263
0.0758248
0.0758638
0.0759851
0.0762951
0.0762464
0.0757967
0.0757791
0.075745
0.0757473
0.0757322
0.0757306
0.0757427
0.0757377
0.0757693
0.0757832
0.0756281
0.0754391
0.0755229
0.0755791
0.0755807
0.0755789
0.0755738
0.0755147
0.0754278
0.0756131
0.0755744
0.0753317
0.0754298
0.0754586
0.0754562
0.075454
0.0754521
0.0754197
0.075318
0.0755567
0.0754992
0.0752868
0.0753891
0.0753835
0.0753779
0.0753752
0.0753753
0.0753765
0.0752697
0.0754774
0.0754058
0.0752327
0.0753377
0.0753152
0.0753156
0.0753121
0.0753048
0.0753215
0.075211
0.0753785
0.0753242
0.075179
0.0752772
0.0752457
0.0752532
0.0752489
0.0752323
0.0752564
0.0751512
0.0752894
0.0752625
0.0751384
0.0752241
0.0751848
0.0751957
0.0751902
0.0751675
0.0751973
0.0751025
0.0752174
0.0752145
0.0751082
0.075181
0.0751363
0.0751474
0.0751404
0.0751137
0.0751464
0.0750619
0.0751559
0.0751747
0.0750828
0.0751439
0.0750964
0.0751062
0.0750971
0.075067
0.0750988
0.0750228
0.0750986
0.0751414
0.0750606
0.0751104
0.0750616
0.0750687
0.0750569
0.0750234
0.0750516
0.0749826
0.0750434
0.0751152
0.0750423
0.0750813
0.075031
0.0750337
0.0750183
0.0749813
0.0750042
0.0749408
0.0749893
0.0750967
0.075029
0.075057
0.0750048
0.0750011
0.0749811
0.07494
0.0749564
0.0748965
0.0749346
0.0750863
0.0750213
0.075038
0.0749825
0.0749707
0.0749444
0.0748984
0.0749066
0.0748482
0.0748773
0.0750848
0.07502
0.0750244
0.0749639
0.0749418
0.0749075
0.0748549
0.0748534
0.0747942
0.0748149
0.0750935
0.0750262
0.0750168
0.0749487
0.074914
0.0748692
0.0748078
0.0747946
0.0747323
0.0747444
0.075114
0.0750417
0.075016
0.0749371
0.0748868
0.0748283
0.0747551
0.0747278
0.0746594
0.0746628
0.0751479
0.075068
0.0750228
0.0749292
0.0748594
0.0747834
0.0746945
0.0746496
0.0745719
0.0745659
0.0751969
0.0751072
0.0750383
0.0749249
0.074831
0.0747325
0.0746227
0.074556
0.0744644
0.0744479
0.075262
0.0751612
0.0750632
0.0749243
0.0748005
0.074673
0.0745357
0.0744413
0.07433
0.0743007
0.0753433
0.0752313
0.0750983
0.0749269
0.0747663
0.0746019
0.0744283
0.0742978
0.0741589
0.0741133
0.0754392
0.0753182
0.0751442
0.0749326
0.0747269
0.0745154
0.0742936
0.074115
0.0739369
0.0738694
0.0755459
0.0754207
0.0752011
0.0749411
0.0746807
0.0744094
0.0741232
0.0738787
0.0736436
0.0735446
0.0756568
0.075535
0.075269
0.0749528
0.074627
0.0742796
0.0739067
0.073569
0.0732479
0.0731003
0.0757639
0.075654
0.0753477
0.0749701
0.0745673
0.0741237
0.0736326
0.0731589
0.0727015
0.0724719
0.0758583
0.0757686
0.0754372
0.0749987
0.0745078
0.0739436
0.07329
0.0726118
0.071926
0.071545
0.0759336
0.0758697
0.0755387
0.0750506
0.0744656
0.0737534
0.0728772
0.0718863
0.0707945
0.0700826
0.0759889
0.0759515
0.075653
0.0751449
0.074473
0.0735874
0.0724073
0.0709332
0.0691055
0.0675822
0.0760297
0.0760128
0.0757833
0.0753205
0.0746068
0.0735423
0.0719757
0.0697558
0.0666397
0.0625616
0.0760593
0.0760477
0.0759282
0.0756167
0.0749569
0.0737345
0.0717186
0.0682667
0.06337
0.051376
0.0763805
0.076421
0.0761135
0.0759907
0.0759493
0.0759478
0.0759864
0.0761068
0.0764123
0.076366
0.0757927
0.0757709
0.0757419
0.0757437
0.0757286
0.075727
0.0757391
0.0757346
0.0757612
0.0757792
0.0755778
0.0753824
0.0754676
0.0755215
0.0755229
0.0755211
0.0755162
0.0754593
0.0753711
0.0755629
0.0755441
0.0753017
0.0754011
0.075428
0.0754259
0.0754237
0.0754215
0.0753909
0.0752879
0.0755265
0.0754934
0.0752878
0.0753927
0.0753869
0.0753821
0.0753793
0.0753786
0.0753798
0.0752705
0.0754716
0.0754125
0.0752488
0.0753561
0.0753348
0.0753357
0.0753322
0.0753242
0.0753397
0.0752267
0.0753854
0.0753381
0.0752029
0.0753031
0.0752735
0.0752812
0.0752767
0.0752599
0.0752822
0.075175
0.0753033
0.0752816
0.0751678
0.0752559
0.0752193
0.07523
0.0752245
0.0752018
0.0752292
0.0751322
0.0752369
0.0752366
0.075141
0.0752166
0.0751749
0.0751858
0.0751787
0.0751521
0.0751818
0.0750946
0.0751792
0.0751978
0.0751164
0.0751804
0.0751358
0.0751454
0.0751362
0.0751062
0.0751348
0.0750556
0.0751236
0.0751644
0.0750932
0.075146
0.0750995
0.0751066
0.0750947
0.0750612
0.0750865
0.0750142
0.0750685
0.0751373
0.0750733
0.075115
0.0750667
0.0750695
0.0750541
0.075017
0.0750375
0.0749709
0.0750136
0.0751175
0.0750581
0.0750888
0.0750378
0.0750346
0.0750146
0.0749732
0.0749874
0.0749247
0.0749577
0.0751057
0.0750482
0.0750675
0.0750129
0.0750016
0.0749753
0.0749289
0.0749353
0.0748745
0.074899
0.075103
0.0750446
0.0750516
0.0749916
0.0749702
0.0749355
0.0748827
0.0748796
0.0748186
0.0748352
0.0751106
0.0750489
0.075042
0.074974
0.07494
0.0748947
0.0748331
0.0748185
0.0747548
0.0747638
0.0751303
0.0750627
0.0750396
0.0749603
0.0749106
0.0748517
0.0747782
0.0747496
0.0746804
0.0746814
0.0751642
0.0750882
0.0750456
0.0749509
0.0748817
0.0748051
0.0747157
0.0746699
0.0745917
0.0745841
0.0752139
0.0751273
0.075061
0.0749461
0.0748525
0.0747531
0.0746427
0.0745752
0.0744836
0.0744661
0.0752808
0.0751824
0.075087
0.0749459
0.074822
0.0746935
0.0745554
0.0744601
0.0743493
0.0743198
0.0753652
0.0752551
0.0751245
0.0749504
0.0747892
0.0746234
0.0744487
0.0743174
0.0741793
0.0741342
0.0754654
0.0753462
0.0751744
0.0749597
0.0747526
0.0745394
0.0743162
0.0741369
0.0739599
0.0738936
0.0755771
0.0754542
0.075237
0.0749737
0.0747112
0.0744376
0.0741497
0.0739044
0.073671
0.073574
0.0756924
0.0755742
0.075312
0.0749932
0.0746643
0.074314
0.0739389
0.0736005
0.073282
0.0731376
0.0758004
0.0756973
0.0753987
0.0750201
0.074613
0.0741653
0.0736715
0.0731973
0.0727444
0.0725199
0.07589
0.0758112
0.075495
0.0750583
0.0745611
0.0739905
0.0733335
0.0726558
0.0719781
0.071606
0.0759524
0.0759033
0.0755982
0.0751138
0.0745179
0.0737953
0.0729142
0.0719257
0.0708491
0.0701535
0.0759874
0.0759666
0.0757001
0.0751906
0.0744982
0.0735953
0.0724079
0.0709385
0.0691377
0.0676455
0.0760007
0.0759964
0.0757802
0.0752927
0.0745425
0.0734523
0.0718744
0.0696576
0.0665766
0.0625397
0.0760068
0.0759843
0.0758035
0.0754127
0.0746993
0.0734523
0.0714254
0.067968
0.0630929
0.0510738
0.0767149
0.0767502
0.0764203
0.0763021
0.0762621
0.0762606
0.0762977
0.0764136
0.0767416
0.0767011
0.0758533
0.0758049
0.0757697
0.0757766
0.0757614
0.0757599
0.075772
0.0757625
0.0757952
0.0758399
0.0755129
0.0752961
0.0753809
0.0754361
0.075437
0.0754352
0.0754308
0.0753725
0.0752848
0.075498
0.075457
0.075199
0.0752999
0.0753281
0.0753263
0.0753241
0.0753215
0.0752897
0.0751852
0.0754392
0.075405
0.0751822
0.0752856
0.0752823
0.0752782
0.0752755
0.0752741
0.0752727
0.0751647
0.0753836
0.075327
0.0751443
0.075246
0.0752269
0.0752273
0.0752238
0.0752164
0.0752294
0.075122
0.0753002
0.0752599
0.0751065
0.0751992
0.0751715
0.0751772
0.0751727
0.0751581
0.0751783
0.0750784
0.0752247
0.0752131
0.0750826
0.075163
0.0751287
0.0751366
0.075131
0.0751113
0.0751365
0.075047
0.0751662
0.0751766
0.0750666
0.0751349
0.0750957
0.0751034
0.0750963
0.075073
0.0751002
0.0750201
0.0751163
0.075145
0.0750514
0.0751086
0.0750665
0.0750728
0.0750635
0.075037
0.0750625
0.0749906
0.0750687
0.0751183
0.0750366
0.075083
0.0750392
0.0750428
0.0750307
0.0750008
0.0750229
0.074958
0.0750205
0.075097
0.0750243
0.0750603
0.0750143
0.0750137
0.074998
0.0749644
0.0749819
0.074922
0.0749709
0.075082
0.0750154
0.0750414
0.0749925
0.0749859
0.0749655
0.0749275
0.074939
0.074882
0.0749198
0.0750744
0.0750112
0.0750266
0.0749737
0.0749594
0.0749327
0.0748892
0.0748933
0.0748371
0.0748651
0.0750755
0.0750129
0.0750168
0.074958
0.0749339
0.0748988
0.0748484
0.0748434
0.0747857
0.074805
0.0750871
0.0750222
0.0750129
0.0749457
0.0749091
0.0748634
0.0748036
0.0747874
0.0747256
0.0747374
0.075111
0.0750412
0.075016
0.0749373
0.074885
0.0748254
0.0747533
0.0747233
0.0746548
0.0746588
0.0751493
0.0750723
0.0750276
0.0749331
0.0748611
0.0747836
0.0746953
0.0746482
0.0745697
0.0745651
0.0752041
0.0751178
0.075049
0.0749339
0.0748372
0.0747367
0.0746269
0.0745581
0.0744655
0.074451
0.0752773
0.0751804
0.0750818
0.07494
0.0748126
0.0746825
0.0745445
0.0744478
0.0743356
0.0743091
0.0753695
0.0752624
0.0751275
0.074952
0.0747866
0.0746188
0.0744437
0.0743104
0.0741708
0.0741288
0.0754795
0.075365
0.0751876
0.0749705
0.0747586
0.0745427
0.0743185
0.0741365
0.0739581
0.0738951
0.0756025
0.0754865
0.075263
0.0749965
0.0747283
0.074451
0.0741616
0.0739129
0.0736785
0.073585
0.0757292
0.0756215
0.0753546
0.075032
0.0746963
0.0743409
0.0739636
0.0736211
0.0733027
0.0731626
0.0758448
0.0757577
0.0754623
0.0750811
0.0746653
0.0742104
0.0737133
0.073235
0.0727846
0.0725664
0.0759328
0.075878
0.0755852
0.0751505
0.0746408
0.0740587
0.0733971
0.0727164
0.072047
0.071686
0.0759842
0.0759645
0.0757175
0.0752459
0.0746307
0.0738887
0.0730005
0.0720125
0.0709585
0.0702865
0.0760061
0.0760217
0.0758464
0.0753586
0.0746346
0.0736986
0.0724999
0.0710386
0.0692958
0.0678598
0.0759911
0.0760247
0.0758983
0.0754247
0.0746262
0.0734849
0.0718881
0.0696887
0.0667362
0.0628582
0.0759572
0.0759282
0.0757266
0.0752601
0.0744534
0.0731406
0.0710922
0.0676657
0.0630104
0.0514375
0.076433
0.076712
0.0763756
0.0762548
0.0762171
0.0762156
0.0762505
0.0763687
0.0767025
0.0764187
0.0758672
0.0758513
0.0757892
0.0757918
0.0757784
0.0757768
0.0757871
0.0757818
0.0758412
0.0758536
0.075748
0.075511
0.0755744
0.0756232
0.0756251
0.0756232
0.0756177
0.0755659
0.0754996
0.0757331
0.0757187
0.0754549
0.0755405
0.0755689
0.0755689
0.0755667
0.0755622
0.0755301
0.0754412
0.0757014
0.0756216
0.0754025
0.075489
0.0754925
0.0754899
0.0754871
0.0754842
0.0754761
0.075386
0.0756008
0.0754983
0.0753239
0.0754071
0.0753975
0.0753969
0.0753935
0.0753869
0.0753908
0.0753032
0.0754722
0.0753967
0.0752559
0.075331
0.0753134
0.0753155
0.0753113
0.0752997
0.0753099
0.0752284
0.0753629
0.0753224
0.0752078
0.0752724
0.0752481
0.0752512
0.0752455
0.0752304
0.0752447
0.0751708
0.075278
0.0752642
0.0751698
0.0752246
0.0751952
0.0751981
0.0751907
0.0751727
0.0751888
0.0751219
0.0752067
0.0752155
0.0751361
0.0751821
0.0751495
0.0751509
0.0751414
0.0751202
0.0751359
0.0750758
0.0751419
0.0751755
0.0751069
0.0751441
0.0751091
0.0751076
0.0750954
0.0750706
0.075084
0.075029
0.075081
0.075144
0.0750823
0.075111
0.0750734
0.0750679
0.0750519
0.0750233
0.0750327
0.0749808
0.0750225
0.075121
0.0750632
0.0750833
0.0750423
0.0750314
0.0750103
0.0749774
0.0749814
0.0749312
0.0749644
0.0751071
0.0750506
0.0750616
0.0750157
0.0749979
0.0749705
0.0749317
0.0749289
0.0748785
0.0749042
0.0751032
0.0750457
0.0750464
0.0749938
0.0749669
0.0749314
0.0748848
0.0748734
0.0748207
0.0748395
0.0751109
0.07505
0.0750385
0.0749767
0.0749381
0.0748917
0.0748351
0.0748133
0.0747562
0.0747682
0.0751322
0.0750658
0.0750393
0.074965
0.0749111
0.0748506
0.0747811
0.0747463
0.0746824
0.0746873
0.0751694
0.0750951
0.0750499
0.074959
0.0748858
0.074807
0.0747208
0.0746696
0.0745959
0.0745926
0.0752248
0.0751411
0.0750719
0.0749594
0.0748618
0.0747597
0.0746516
0.0745797
0.074492
0.0744791
0.0753004
0.0752066
0.0751072
0.0749671
0.0748389
0.074707
0.0745703
0.0744714
0.0743642
0.0743394
0.0753971
0.0752945
0.0751578
0.074983
0.074817
0.0746471
0.0744727
0.0743383
0.0742039
0.0741637
0.0755128
0.0754056
0.0752256
0.0750083
0.0747958
0.0745777
0.0743538
0.0741716
0.073999
0.0739379
0.0756413
0.0755372
0.0753119
0.0750447
0.0747761
0.0744968
0.0742073
0.0739595
0.0737321
0.0736409
0.0757698
0.0756795
0.0754171
0.0750951
0.0747595
0.0744028
0.0740255
0.0736856
0.0733766
0.0732395
0.07588
0.075814
0.0755392
0.075165
0.0747503
0.0742948
0.0737992
0.0733264