/*--------------------------------*- C++ -*----------------------------------*\
| =========                 |                                                 |
| \\      /  F ield         | OpenFOAM: The Open Source CFD Toolbox           |
|  \\    /   O peration     | Version:  4.1                                   |
|   \\  /    A nd           | Web:      www.OpenFOAM.org                      |
|    \\/     M anipulation  |                                                 |
\*---------------------------------------------------------------------------*/
FoamFile
{
    version     2.0;
    format      ascii;
    class       surfaceScalarField;
    location    "600";
    object      phi;
}
// * * * * * * * * * * * * * * * * * * * * * * * * * * * * * * * * * * * * * //

dimensions      [0 3 -1 0 0 0 0];

internalField   nonuniform List<scalar> 
33700
(
4.95296e-05
0.000901021
4.94556e-05
2.31066e-05
0.000971336
5.5092e-05
8.43174e-06
0.000957417
5.72619e-05
3.1473e-06
0.000948223
5.7065e-05
8.57108e-08
0.000945772
5.72934e-05
-2.98366e-06
0.00094578
5.7293e-05
-8.28569e-06
0.000948243
5.70642e-05
-2.29776e-05
0.000957437
5.7259e-05
-4.94314e-05
0.000971375
5.50825e-05
0.000901038
4.9532e-05
3.12368e-05
0.000838708
3.10841e-05
2.36535e-05
0.000940531
3.83942e-05
1.33884e-05
0.000927223
4.0463e-05
6.11783e-06
0.00091555
3.99463e-05
2.10239e-07
0.000911332
4.03494e-05
-5.71694e-06
0.000911361
4.03505e-05
-1.30325e-05
0.000915625
3.99373e-05
-2.32437e-05
0.000927254
4.03983e-05
-3.08393e-05
0.000940629
3.83456e-05
0.000839018
3.11822e-05
1.62711e-05
0.000806421
1.60188e-05
1.6588e-05
0.000917381
2.2832e-05
1.17117e-05
0.000907959
2.41366e-05
6.05508e-06
0.000897377
2.38256e-05
3.74701e-07
0.00089267
2.43393e-05
-5.32597e-06
0.000892724
2.43352e-05
-1.10466e-05
0.000897544
2.3801e-05
-1.59607e-05
0.000908083
2.40855e-05
-1.57515e-05
0.000917624
2.27969e-05
0.000807233
1.60343e-05
8.9468e-06
0.000788894
8.57583e-06
1.19132e-05
0.00090084
1.35682e-05
9.57135e-06
0.000896348
1.39448e-05
5.24399e-06
0.00088735
1.43443e-05
5.85306e-07
0.000882336
1.49829e-05
-4.10148e-06
0.000882421
1.49802e-05
-8.52068e-06
0.000887644
1.43113e-05
-1.10477e-05
0.000896717
1.38889e-05
-8.27908e-06
0.000901343
1.35109e-05
0.000790408
8.54568e-06
5.58524e-06
0.000778246
5.05336e-06
9.33981e-06
0.000888336
8.73872e-06
8.29403e-06
0.000889583
7.79844e-06
4.74574e-06
0.000881913
8.97226e-06
8.53984e-07
0.00087655
9.66462e-06
-3.10696e-06
0.0008767
9.66971e-06
-6.80413e-06
0.000882365
8.96534e-06
-8.17073e-06
0.000890307
7.76851e-06
-4.66841e-06
0.000889129
8.70733e-06
0.000780745
4.99292e-06
4.44967e-06
0.00077008
3.7047e-06
7.54153e-06
0.000878549
6.68347e-06
7.39853e-06
0.000885454
4.25967e-06
4.50675e-06
0.000878674
6.11783e-06
1.17214e-06
0.000873188
6.68273e-06
-2.23342e-06
0.000873389
6.70255e-06
-5.32481e-06
0.000879312
6.13215e-06
-5.89524e-06
0.000886617
4.25065e-06
-3.16696e-06
0.000879767
6.62763e-06
0.000773909
3.6677e-06
4.29269e-06
0.000762486
3.28904e-06
6.38751e-06
0.00087044
6.0023e-06
6.82628e-06
0.000882558
2.44567e-06
4.40924e-06
0.000876289
4.79025e-06
1.54202e-06
0.000870931
5.1121e-06
-1.30782e-06
0.000871089
5.13703e-06
-3.97767e-06
0.000877119
4.85102e-06
-3.98956e-06
0.000884245
2.37489e-06
-2.56595e-06
0.000872386
5.95178e-06
0.000767981
3.35931e-06
4.53674e-06
0.000754768
3.1706e-06
5.75806e-06
0.000863302
5.90599e-06
6.67402e-06
0.000880199
1.43335e-06
4.43678e-06
0.000874276
4.24082e-06
2.08454e-06
0.000868982
4.29021e-06
-3.71111e-07
0.000869255
4.27749e-06
-2.85641e-06
0.000875265
4.32825e-06
-2.63078e-06
0.000882582
1.42851e-06
-2.15933e-06
0.000866005
5.90234e-06
0.000762517
3.30142e-06
4.96486e-06
0.000746718
3.07377e-06
5.57975e-06
0.000856748
5.92951e-06
6.80324e-06
0.000878166
8.00582e-07
4.73378e-06
0.000872333
4.00457e-06
2.83582e-06
0.000867137
3.73407e-06
6.13811e-07
0.000867727
3.74058e-06
-1.79761e-06
0.000873491
4.17587e-06
-1.54401e-06
0.000881463
8.57206e-07
-1.70305e-06
0.000860115
6.04268e-06
0.000757592
3.21936e-06
5.49084e-06
0.000738295
2.92375e-06
5.698e-06
0.000850602
5.93137e-06
7.19634e-06
0.000876258
4.03862e-07
5.38795e-06
0.000870207
3.92777e-06
3.71233e-06
0.00086541
3.39628e-06
1.76911e-06
0.00086625
3.41213e-06
-6.01378e-07
0.000871686
4.16785e-06
-3.65373e-07
0.000880713
5.07474e-07
-1.17794e-06
0.000854774
6.14672e-06
0.000753242
3.16841e-06
6.16127e-06
0.000729395
2.73049e-06
6.01964e-06
0.000844888
5.84889e-06
7.92385e-06
0.000874176
1.72379e-07
6.34184e-06
0.000867867
3.91777e-06
4.88278e-06
0.00086368
3.18375e-06
3.20284e-06
0.00086478
3.14429e-06
7.43859e-07
0.000869945
4.1938e-06
1.00785e-06
0.000880176
2.68048e-07
-5.24387e-07
0.000850137
6.16499e-06
0.00074958
3.13565e-06
7.04237e-06
0.000719821
2.52547e-06
6.61752e-06
0.00083961
5.69836e-06
9.09977e-06
0.000871678
1.27299e-08
7.71916e-06
0.000865351
3.89385e-06
6.51277e-06
0.000861907
2.9771e-06
4.98078e-06
0.000863421
2.88731e-06
2.30426e-06
0.000868426
4.19086e-06
2.63677e-06
0.00087981
2.85761e-08
2.06778e-07
0.000846503
6.05972e-06
0.000746642
3.14313e-06
8.23274e-06
0.000709255
2.32912e-06
7.71354e-06
0.000834625
5.50126e-06
1.08213e-05
0.000868689
-1.20513e-07
9.68396e-06
0.000862664
3.82339e-06
8.65343e-06
0.000860168
2.7687e-06
7.17443e-06
0.00086229
2.60922e-06
4.22122e-06
0.000867253
4.12442e-06
4.48543e-06
0.000879755
-2.11535e-07
1.02893e-06
0.000844077
5.88058e-06
0.000744461
3.20813e-06
9.85056e-06
0.000697283
2.11826e-06
9.55242e-06
0.000829658
5.26286e-06
1.31412e-05
0.000865317
-2.1715e-07
1.2296e-05
0.000859816
3.69408e-06
1.14203e-05
0.000858484
2.55928e-06
9.93145e-06
0.000861446
2.33197e-06
6.60301e-06
0.000866534
4.04548e-06
6.57948e-06
0.000880174
-3.97366e-07
2.0727e-06
0.000842922
5.65956e-06
0.000743236
3.29768e-06
1.19961e-05
0.000683372
1.9118e-06
1.22372e-05
0.000824397
5.01884e-06
1.62752e-05
0.000861512
-2.32767e-07
1.57491e-05
0.00085678
3.56325e-06
1.50094e-05
0.000856822
2.40351e-06
1.34368e-05
0.000860907
2.1124e-06
9.64134e-06
0.000866369
3.96022e-06
9.04406e-06
0.000881254
-4.8363e-07
3.41669e-06
0.000843104
5.44404e-06
0.000743284
3.36751e-06
1.48034e-05
0.000666813
1.75475e-06
1.58988e-05
0.000818494
4.808e-06
2.04976e-05
0.000857025
-1.10775e-07
2.03276e-05
0.000853482
3.47053e-06
1.96865e-05
0.00085514
2.32596e-06
1.79407e-05
0.000860694
1.96015e-06
1.35602e-05
0.00086685
3.89894e-06
1.20954e-05
0.000883188
-4.70045e-07
5.11616e-06
0.0008448
5.2825e-06
0.000744946
3.45382e-06
1.8473e-05
0.000646644
1.69579e-06
2.08336e-05
0.000811462
4.67251e-06
2.60934e-05
0.000851636
1.3266e-07
2.63433e-05
0.000849794
3.44129e-06
2.57644e-05
0.000853361
2.36037e-06
2.37473e-05
0.000860811
1.90199e-06
1.86253e-05
0.000868087
3.88582e-06
1.59797e-05
0.000886194
-3.61703e-07
7.27993e-06
0.000848314
5.18448e-06
0.000748577
3.64949e-06
2.32113e-05
0.000621626
1.81053e-06
2.74467e-05
0.000802543
4.68771e-06
3.34481e-05
0.000845091
5.48107e-07
3.42038e-05
0.000845533
3.51065e-06
3.36496e-05
0.000851378
2.54231e-06
3.12399e-05
0.000861251
1.97212e-06
2.51736e-05
0.0008702
3.95426e-06
2.09711e-05
0.00089052
-1.23326e-07
1.00725e-05
0.000854027
5.18475e-06
0.00075464
4.00915e-06
2.92136e-05
0.000590179
2.23979e-06
3.6191e-05
0.000790608
4.96356e-06
4.30896e-05
0.000837
1.19945e-06
4.44191e-05
0.000840456
3.7539e-06
4.38804e-05
0.000849004
2.91767e-06
4.0931e-05
0.000861973
2.23052e-06
3.36477e-05
0.000873318
4.16568e-06
2.74415e-05
0.000896412
3.1442e-07
1.37037e-05
0.000862421
5.34342e-06
0.000763751
4.59265e-06
3.6641e-05
0.000550381
3.16784e-06
4.76169e-05
0.000773977
5.66427e-06
5.56553e-05
0.000826781
2.18915e-06
5.76372e-05
0.000834209
4.27378e-06
5.71183e-05
0.000845955
3.575e-06
5.34847e-05
0.000862849
2.76152e-06
4.46537e-05
0.000877554
4.59775e-06
3.58876e-05
0.000904141
1.03779e-06
1.84573e-05
0.000874107
5.74502e-06
0.000776721
5.48821e-06
4.55303e-05
0.000500061
4.80575e-06
6.23378e-05
0.000750173
7.00903e-06
7.1906e-05
0.000813536
3.68807e-06
7.46587e-05
0.000826264
5.20299e-06
7.41889e-05
0.000841797
4.63566e-06
6.97693e-05
0.000863589
3.68461e-06
5.90201e-05
0.000882947
5.35879e-06
4.69825e-05
0.000914047
2.13249e-06
2.47366e-05
0.000889855
6.49823e-06
0.000794639
6.81952e-06
5.56554e-05
0.000437038
7.39135e-06
8.08054e-05
0.000715758
9.28218e-06
9.27148e-05
0.000795734
5.90739e-06
9.64453e-05
0.00081582
6.72463e-06
9.61411e-05
0.000835858
6.25216e-06
9.0928e-05
0.000863645
5.16266e-06
7.7891e-05
0.000889383
6.60431e-06
6.16889e-05
0.000926518
3.73351e-06
3.31209e-05
0.000910655
7.76897e-06
0.000818995
8.76615e-06
6.62943e-05
0.000359716
1.10593e-05
0.000103002
0.000666333
1.2738e-05
0.000118895
0.000770714
9.14294e-06
0.000124109
0.000801533
9.08694e-06
0.000124277
0.000827064
8.63507e-06
0.000118472
0.000862032
7.42614e-06
0.000102878
0.000896417
8.56376e-06
8.14423e-05
0.000941904
6.05142e-06
4.45193e-05
0.000937791
9.78801e-06
0.000851929
1.1586e-05
7.58834e-05
0.000268251
1.56223e-05
0.000127751
0.000597054
1.74347e-05
0.000150814
0.000733963
1.37075e-05
0.000158874
0.00078083
1.2659e-05
0.000160232
0.00081363
1.20866e-05
0.000154416
0.000857088
1.07667e-05
0.000136307
0.000902986
1.15436e-05
0.000108453
0.000960361
9.39835e-06
6.03575e-05
0.000972985
1.29028e-05
0.000896634
1.56534e-05
8.16266e-05
0.000166498
2.01786e-05
0.000151781
0.000504016
2.29116e-05
0.000187581
0.000678331
1.98528e-05
0.00020182
0.000748626
1.79811e-05
0.000206046
0.000792379
1.7037e-05
0.000201464
0.000846084
1.55944e-05
0.000181546
0.000906947
1.59612e-05
0.000146285
0.00098144
1.41835e-05
8.32201e-05
0.00101845
1.75991e-05
0.000958319
2.15363e-05
7.86886e-05
6.55909e-05
2.22922e-05
0.000168512
0.000386418
2.78059e-05
0.000225736
0.000593373
2.77551e-05
0.000253274
0.000695162
2.5942e-05
0.000264241
0.00075722
2.42039e-05
0.000263456
0.000824504
2.23721e-05
0.000243677
0.00090441
2.23209e-05
0.000200748
0.00100342
2.09492e-05
0.000117368
0.00107727
2.45577e-05
0.00104567
3.00164e-05
5.81202e-05
-1.28784e-05
2.04523e-05
0.000167829
0.000246964
2.97835e-05
0.000257808
0.00046659
3.68261e-05
0.000310585
0.000604827
3.75739e-05
0.000336575
0.000696339
3.49009e-05
0.000345081
0.000784098
3.19054e-05
0.000330109
0.000888166
3.12163e-05
0.000281879
0.00102127
3.03822e-05
0.000173523
0.00115079
3.48398e-05
0.00117667
4.25296e-05
9.8828e-06
-5.06707e-05
2.80284e-05
0.000140276
7.99802e-05
3.66476e-05
0.000272519
0.000285081
4.92932e-05
0.000367079
0.000456673
5.36106e-05
0.000423968
0.000589167
5.02952e-05
0.000453053
0.000709803
4.5215e-05
0.000452329
0.000845698
4.31953e-05
0.000405763
0.00102501
4.28307e-05
0.000269387
0.00123794
4.92321e-05
0.00138544
6.06163e-05
-3.25531e-06
-8.0883e-05
3.35937e-05
0.000100204
-7.32287e-05
4.98328e-05
0.000251022
6.48811e-05
6.9427e-05
0.000393361
0.000235984
7.83754e-05
0.00050716
0.000401129
7.42534e-05
0.000585551
0.000566224
6.51952e-05
0.000626268
0.00074518
5.98047e-05
0.000597862
0.000994358
5.90559e-05
0.000477475
0.00128889
6.94343e-05
0.00177519
8.77259e-05
7.52625e-05
1.15686e-05
-0.000167632
0.000174285
2.8725e-05
-0.000200906
0.000281692
6.1743e-05
-0.000104198
0.000407292
8.85029e-05
2.19482e-05
0.000558447
9.66019e-05
0.000153419
0.000711835
9.02718e-05
0.000322593
0.000851926
8.07229e-05
0.00052438
0.000905381
7.68671e-05
0.000864039
0.000893781
8.74857e-05
0.00121301
0.000123391
0.00254558
5.51547e-05
0.000971267
2.30314e-05
2.07255e-05
0.00106885
2.06681e-05
6.55013e-06
0.00105004
2.13938e-05
2.32049e-06
0.00103971
2.15796e-05
6.65181e-08
0.00103784
2.17041e-05
-2.195e-06
0.00103785
2.17035e-05
-6.4485e-06
0.00103974
2.15771e-05
-2.07064e-05
0.00105013
2.13866e-05
-5.53932e-05
0.00106909
2.0682e-05
0.000971047
2.3091e-05
3.8528e-05
0.000940353
2.34649e-05
2.29425e-05
0.00110003
2.27903e-05
1.28799e-05
0.00107753
2.3034e-05
5.78885e-06
0.00106356
2.3185e-05
1.84862e-07
0.0010604
2.33873e-05
-5.44145e-06
0.00106043
2.33866e-05
-1.25732e-05
0.00106363
2.31746e-05
-2.27219e-05
0.00107774
2.29335e-05
-3.81042e-05
0.00110002
2.27953e-05
0.000940598
2.35271e-05
2.30589e-05
0.000917029
1.62835e-05
1.81454e-05
0.0011099
1.78806e-05
1.16721e-05
0.00109145
1.66831e-05
5.75036e-06
0.00107675
1.65482e-05
3.72626e-07
0.00107338
1.67277e-05
-5.03265e-06
0.00107345
1.67171e-05
-1.10385e-05
0.00107689
1.65375e-05
-1.76417e-05
0.0010918
1.66256e-05
-2.2502e-05
0.00110975
1.79249e-05
0.000917847
1.62844e-05
1.39031e-05
0.000900225
1.14786e-05
1.49578e-05
0.00110786
1.45561e-05
9.80399e-06
0.00109761
1.29371e-05
4.82746e-06
0.00108335
1.27236e-05
5.72313e-07
0.00107969
1.29328e-05
-3.71709e-06
0.00107981
1.2914e-05
-8.8026e-06
0.00108358
1.27165e-05
-1.4121e-05
0.00109803
1.29767e-05
-1.30938e-05
0.00110764
1.45985e-05
0.000901863
1.1438e-05
9.22189e-06
0.000887347
8.71222e-06
1.29872e-05
0.00110042
1.24161e-05
8.7768e-06
0.00109867
1.09588e-05
4.39264e-06
0.00108571
1.09927e-05
8.06471e-07
0.00108171
1.12344e-05
-2.81601e-06
0.00108185
1.12532e-05
-7.34253e-06
0.00108609
1.09795e-05
-1.16544e-05
0.00109914
1.09745e-05
-8.10417e-06
0.00110047
1.23337e-05
0.000890066
8.68623e-06
7.35144e-06
0.000877028
6.67521e-06
1.19637e-05
0.00109132
1.11764e-05
8.09332e-06
0.00109748
9.31883e-06
4.2785e-06
0.00108607
9.57513e-06
1.09621e-06
0.00108171
9.86467e-06
-2.137e-06
0.00108191
9.87617e-06
-6.15766e-06
0.00108668
9.56417e-06
-1.02081e-05
0.00109811
9.33618e-06
-5.85878e-06
0.00109163
1.11125e-05
0.000881245
6.63056e-06
6.91513e-06
0.000868149
5.25617e-06
1.11772e-05
0.00108298
1.00771e-05
7.52148e-06
0.00109577
7.81199e-06
4.25664e-06
0.00108571
8.42151e-06
1.48017e-06
0.00108096
8.62959e-06
-1.43522e-06
0.00108143
8.53227e-06
-5.03733e-06
0.0010867
8.43671e-06
-9.2292e-06
0.00109682
7.85725e-06
-4.98116e-06
0.00108298
1.03584e-05
0.000874534
5.08938e-06
7.18661e-06
0.000859927
4.20789e-06
1.07657e-05
0.00107605
9.25977e-06
7.20551e-06
0.00109411
6.65618e-06
4.46183e-06
0.00108489
7.79687e-06
1.97584e-06
0.00108016
7.57581e-06
-6.84815e-07
0.00108079
7.57244e-06
-3.93311e-06
0.00108654
7.73254e-06
-8.04566e-06
0.00109568
6.68628e-06
-4.70504e-06
0.00107606
9.48353e-06
0.000869024
4.10576e-06
7.68059e-06
0.000851941
3.38017e-06
1.06677e-05
0.0010703
8.69627e-06
7.2887e-06
0.00109236
5.9256e-06
4.93809e-06
0.00108391
7.34138e-06
2.58358e-06
0.00107949
6.76483e-06
1.21882e-07
0.00108011
6.88944e-06
-2.85364e-06
0.00108646
7.23785e-06
-6.7596e-06
0.00109462
5.82122e-06
-4.4893e-06
0.0010712
8.62998e-06
0.000864313
3.43959e-06
8.23877e-06
0.000843922
2.70488e-06
1.07893e-05
0.00106552
8.15643e-06
7.72797e-06
0.00109051
5.31452e-06
5.61679e-06
0.00108307
6.87684e-06
3.4101e-06
0.00107891
6.18175e-06
1.03365e-06
0.00107971
6.19022e-06
-1.84795e-06
0.00108669
6.82625e-06
-5.66696e-06
0.00109383
5.12107e-06
-4.14016e-06
0.0010677
8.11854e-06
0.00086049
2.85102e-06
8.86065e-06
0.000835754
2.03864e-06
1.13058e-05
0.00106111
7.8186e-06
8.51197e-06
0.00108872
4.75287e-06
6.58194e-06
0.00108236
6.55404e-06
4.50881e-06
0.00107853
5.64036e-06
2.13262e-06
0.00107967
5.56066e-06
-7.4247e-07
0.00108721
6.54526e-06
-4.59763e-06
0.00109349
4.45916e-06
-3.60814e-06
0.00106514
7.74236e-06
0.000857721
2.29608e-06
9.61525e-06
0.00082728
1.38416e-06
1.22605e-05
0.0010565
7.66447e-06
9.67596e-06
0.00108713
4.19524e-06
7.89809e-06
0.00108172
6.31122e-06
5.90048e-06
0.00107837
5.13716e-06
3.49545e-06
0.0010799
5.06886e-06
5.67613e-07
0.00108795
6.38503e-06
-3.50072e-06
0.00109372
3.87006e-06
-2.8801e-06
0.00106302
7.55295e-06
0.000856252
1.73195e-06
1.06344e-05
0.000818152
8.23587e-07
1.35852e-05
0.00105151
7.53536e-06
1.12561e-05
0.00108559
3.7436e-06
9.61958e-06
0.00108106
6.12136e-06
7.69851e-06
0.00107827
4.79086e-06
5.23203e-06
0.00108026
4.71097e-06
2.13936e-06
0.00108887
6.29254e-06
-2.20596e-06
0.00109443
3.42588e-06
-1.95518e-06
0.00106122
7.43119e-06
0.000856255
1.24931e-06
1.19568e-05
0.0008079
4.14772e-07
1.52691e-05
0.00104613
7.33322e-06
1.34057e-05
0.0010837
3.53711e-06
1.18967e-05
0.00108026
6.01007e-06
1.00397e-05
0.00107814
4.5474e-06
7.47467e-06
0.00108074
4.42469e-06
4.14735e-06
0.00109002
6.23237e-06
-4.88858e-07
0.00109563
3.0432e-06
-8.31131e-07
0.00106
7.22492e-06
0.000857762
9.60513e-07
1.36821e-05
0.000795938
1.93896e-07
1.74703e-05
0.00104028
7.08012e-06
1.62567e-05
0.00108128
3.41001e-06
1.48863e-05
0.00107926
5.93334e-06
1.30845e-05
0.00107798
4.36864e-06
1.03809e-05
0.00108137
4.18794e-06
6.73219e-06
0.00109146
6.17042e-06
1.75921e-06
0.00109739
2.73187e-06
4.82264e-07
0.00105979
6.93266e-06
0.000860747
8.65504e-07
1.59695e-05
0.000781611
1.16581e-07
2.0448e-05
0.00103374
6.88046e-06
1.99718e-05
0.00107834
3.301e-06
1.8785e-05
0.00107802
5.89727e-06
1.70319e-05
0.00107779
4.26368e-06
1.41354e-05
0.00108222
4.00763e-06
1.00492e-05
0.00109333
6.11823e-06
4.59286e-06
0.00109987
2.50813e-06
2.04101e-06
0.00106098
6.64419e-06
0.000865317
9.26592e-07
1.89811e-05
0.000764175
1.56998e-07
2.44749e-05
0.00102613
6.79536e-06
2.48206e-05
0.0010748
3.33904e-06
2.38673e-05
0.00107649
5.93259e-06
2.21501e-05
0.0010776
4.27205e-06
1.8988e-05
0.00108338
3.90833e-06
1.43077e-05
0.00109579
6.10382e-06
8.13117e-06
0.0011033
2.38892e-06
3.9947e-06
0.00106388
6.42988e-06
0.000871848
1.11443e-06
2.28826e-05
0.000742726
3.85923e-07
2.98392e-05
0.00101701
6.85387e-06
3.11576e-05
0.00107043
3.60717e-06
3.04835e-05
0.00107459
6.08462e-06
2.87853e-05
0.0010774
4.44437e-06
2.52673e-05
0.00108493
3.93781e-06
1.98022e-05
0.00109906
6.15873e-06
1.26252e-05
0.00110796
2.394e-06
6.49126e-06
0.0010689
6.29453e-06
0.000880898
1.4523e-06
2.7856e-05
0.000716205
9.16495e-07
3.69526e-05
0.00100573
7.15668e-06
3.93955e-05
0.00106506
4.13058e-06
3.90696e-05
0.00107226
6.41485e-06
3.73659e-05
0.00107723
4.79937e-06
3.33945e-05
0.001087
4.1378e-06
2.69254e-05
0.00110337
6.32998e-06
1.83733e-05
0.00111428
2.55943e-06
9.69658e-06
0.00107665
6.27681e-06
0.000893204
1.98531e-06
3.40814e-05
0.000683407
1.89853e-06
4.62938e-05
0.00099134
7.85401e-06
5.00602e-05
0.0010585
4.99583e-06
5.01697e-05
0.00106943
7.00643e-06
4.84471e-05
0.00107712
5.41284e-06
4.39237e-05
0.00108973
4.56742e-06
3.6194e-05
0.00110903
6.67561e-06
2.57782e-05
0.00112279
2.94269e-06
1.3842e-05
0.00108789
6.44443e-06
0.000909764
2.77329e-06
4.16815e-05
0.000642985
3.56411e-06
5.83537e-05
0.000972566
9.12454e-06
6.37948e-05
0.00105039
6.36901e-06
6.44588e-05
0.00106599
7.98573e-06
6.27466e-05
0.00107706
6.41325e-06
5.75867e-05
0.00109325
5.3294e-06
4.83024e-05
0.00111638
7.29204e-06
3.541e-05
0.0011342
3.62539e-06
1.92591e-05
0.00110365
6.8924e-06
0.000931929
3.91594e-06
5.06626e-05
0.000593505
6.23081e-06
7.36364e-05
0.000947628
1.12622e-05
8.13435e-05
0.00104016
8.44224e-06
8.27648e-05
0.00106178
9.52883e-06
8.11761e-05
0.00107695
7.9585e-06
7.53639e-05
0.00109765
6.57869e-06
6.42258e-05
0.00112581
8.31985e-06
4.81003e-05
0.00114933
4.73559e-06
2.64532e-05
0.00112532
7.75436e-06
0.000961585
5.5663e-06
6.07806e-05
0.000533552
1.02578e-05
9.24464e-05
0.000914102
1.46156e-05
0.000103529
0.00102671
1.15271e-05
0.000106103
0.0010564
1.19051e-05
0.000104906
0.00107652
1.02755e-05
9.85828e-05
0.00110288
8.52961e-06
8.53589e-05
0.00113765
9.95325e-06
6.50927e-05
0.00116919
6.45918e-06
3.61987e-05
0.00115478
9.22597e-06
0.00100143
7.94731e-06
7.13265e-05
0.00046199
1.58873e-05
0.000114619
0.000868693
1.9571e-05
0.00013109
0.00100797
1.59936e-05
0.000135685
0.00104899
1.54876e-05
0.000135458
0.00107516
1.36868e-05
0.000129076
0.00110855
1.14857e-05
0.000113742
0.00115209
1.24527e-05
8.83249e-05
0.00119496
9.05546e-06
4.97351e-05
0.0011947
1.15806e-05
0.00105544
1.13778e-05
8.08621e-05
0.000378609
2.27306e-05
0.000139022
0.000807174
2.629e-05
0.000164379
0.000980166
2.23109e-05
0.000172893
0.00103765
2.08153e-05
0.00017479
0.00107168
1.86282e-05
0.000169396
0.00111368
1.58718e-05
0.000152451
0.0011688
1.61956e-05
0.000120975
0.00122776
1.28638e-05
6.93351e-05
0.00124874
1.52023e-05
0.00113
1.63096e-05
8.6762e-05
0.00028496
2.92146e-05
0.000162716
0.000724741
3.43048e-05
0.000202768
0.00093687
3.10142e-05
0.000219195
0.00101851
2.86673e-05
0.000225501
0.00106385
2.57388e-05
0.000223128
0.00111629
2.21408e-05
0.000206158
0.0011865
2.15981e-05
0.000168334
0.00126822
1.83101e-05
9.87235e-05
0.00132233
2.05755e-05
0.00123541
2.3336e-05
8.52217e-05
0.000187762
3.24669e-05
0.000180346
0.000618038
4.13803e-05
0.000243401
0.000868623
4.20304e-05
0.000275264
0.000984215
4.00182e-05
0.000290698
0.00104741
3.59159e-05
0.000295209
0.00111286
3.08325e-05
0.000282013
0.00120193
2.89939e-05
0.000239783
0.00131509
2.57546e-05
0.000148022
0.00142061
2.83335e-05
0.00139275
3.32175e-05
6.93013e-05
0.000113273
3.32659e-05
0.000185604
0.000491153
4.72491e-05
0.000281468
0.000767105
5.49601e-05
0.000340467
0.000923846
5.4989e-05
0.000373852
0.00101498
4.93469e-05
0.000392263
0.0010979
4.17692e-05
0.000390743
0.00120876
3.78817e-05
0.000350938
0.00136305
3.46722e-05
0.000233101
0.00154914
3.85397e-05
0.00163981
4.66619e-05
4.62218e-05
7.33585e-05
2.73522e-05
0.000172847
0.0003617
5.26849e-05
0.000303651
0.000637065
6.86777e-05
0.000405204
0.000828545
7.21343e-05
0.000474838
0.000954727
6.48786e-05
0.000521399
0.00106308
5.34653e-05
0.000548176
0.00119558
4.62145e-05
0.000522997
0.00140467
4.26185e-05
0.000421465
0.00167002
5.00905e-05
0.00208541
6.35864e-05
6.3256e-05
-6.57432e-06
2.83525e-05
0.000176021
3.84265e-05
0.000239279
0.000316235
6.30046e-05
0.00049562
0.000453419
7.06391e-05
0.000709249
0.000574643
6.41414e-05
0.000865984
0.00067714
5.10188e-05
0.000999848
0.000774699
4.10703e-05
0.00113769
0.000806525
3.72375e-05
0.00141249
0.000801744
5.07977e-05
0.00171149
7.98444e-05
0.0029307
5.73232e-05
0.00095736
8.34585e-06
2.1448e-05
0.00105005
6.48652e-06
6.47351e-06
0.00102995
6.41576e-06
2.18399e-06
0.00101943
6.43226e-06
6.02708e-08
0.00101738
6.44611e-06
-2.07121e-06
0.00101739
6.44532e-06
-6.38765e-06
0.00101946
6.42945e-06
-2.14807e-05
0.00103007
6.41193e-06
-5.76871e-05
0.00105039
6.49876e-06
0.000957035
8.36839e-06
4.06096e-05
0.000927056
1.31537e-05
2.31777e-05
0.00107754
1.27286e-05
1.25989e-05
0.0010511
1.24536e-05
5.76291e-06
0.00103694
1.25038e-05
1.69495e-07
0.00103381
1.25438e-05
-5.44737e-06
0.00103384
1.25402e-05
-1.23478e-05
0.00103704
1.24908e-05
-2.29765e-05
0.0010512
1.24264e-05
-4.00167e-05
0.00107748
1.27336e-05
0.000927336
1.32067e-05
2.43602e-05
0.000907614
1.13614e-05
1.69499e-05
0.00109146
1.13689e-05
1.1035e-05
0.00106295
1.07385e-05
5.65072e-06
0.00104813
1.07391e-05
3.59048e-07
0.00104503
1.0784e-05
-4.96606e-06
0.0010451
1.07801e-05
-1.04344e-05
0.00104831
1.07308e-05
-1.64454e-05
0.0010631
1.07282e-05
-2.37335e-05
0.00109132
1.13789e-05
0.00090852
1.13653e-05
1.42489e-05
0.000895746
9.09685e-06
1.33516e-05
0.00109758
9.32862e-06
8.99953e-06
0.00107172
8.52223e-06
4.56145e-06
0.00105681
8.47056e-06
5.64801e-07
0.00105342
8.5408e-06
-3.47769e-06
0.00105351
8.53606e-06
-8.02853e-06
0.0010571
8.46807e-06
-1.24826e-05
0.001072
8.52747e-06
-1.34628e-05
0.00109756
9.33483e-06
0.000897428
9.06456e-06
8.23298e-06
0.000888635
7.58882e-06
1.15193e-05
0.00109861
8.10027e-06
8.08387e-06
0.0010787
7.40556e-06
4.11356e-06
0.00106432
7.44947e-06
8.07277e-07
0.00106035
7.60184e-06
-2.54388e-06
0.00106051
7.60269e-06
-6.66769e-06
0.00106476
7.44824e-06
-1.02145e-05
0.00107912
7.39928e-06
-7.20969e-06
0.0010988
8.08121e-06
0.000891324
7.57822e-06
4.8487e-06
0.000884061
6.40049e-06
1.00893e-05
0.00109739
7.15121e-06
7.34064e-06
0.00108436
6.40518e-06
3.9781e-06
0.00107068
6.57128e-06
1.10672e-06
0.00106628
6.80399e-06
-1.83611e-06
0.00106652
6.80939e-06
-5.41349e-06
0.00107132
6.57233e-06
-8.36526e-06
0.00108501
6.39973e-06
-3.50136e-06
0.00109791
7.13295e-06
0.000888044
6.40506e-06
3.21663e-06
0.00088065
5.44949e-06
8.98664e-06
0.00109546
6.23736e-06
6.55686e-06
0.00108933
5.26501e-06
3.91847e-06
0.00107616
5.58e-06
1.49354e-06
0.00107149
5.84155e-06
-1.07257e-06
0.00107178
5.82749e-06
-4.01459e-06
0.00107711
5.58856e-06
-6.80356e-06
0.00109038
5.27362e-06
-1.40405e-06
0.00109658
6.29333e-06
0.00088626
5.46669e-06
2.57377e-06
0.000877482
4.80239e-06
8.19464e-06
0.00109358
5.51125e-06
6.00834e-06
0.0010939
4.26892e-06
4.07374e-06
0.00108109
4.79943e-06
1.95836e-06
0.00107619
4.98302e-06
-2.6881e-07
0.00107661
4.96858e-06
-2.62727e-06
0.00108241
4.79137e-06
-5.27262e-06
0.00109546
4.24795e-06
-2.70055e-07
0.00109549
5.56006e-06
0.000885201
4.89069e-06
2.34208e-06
0.000874182
4.33737e-06
7.73322e-06
0.00109191
4.97856e-06
5.85694e-06
0.00109814
3.56313e-06
4.4709e-06
0.00108552
4.29264e-06
2.56107e-06
0.00108053
4.3419e-06
5.58955e-07
0.00108114
4.36432e-06
-1.35111e-06
0.0010873
4.25287e-06
-3.92111e-06
0.00110034
3.51143e-06
4.56672e-07
0.00109479
4.94885e-06
0.000884606
4.48859e-06
2.4762e-06
0.000870493
3.91852e-06
7.61773e-06
0.00109031
4.60934e-06
6.05729e-06
0.00110195
3.05997e-06
5.09366e-06
0.00108944
3.9218e-06
3.3793e-06
0.00108455
3.874e-06
1.45928e-06
0.00108536
3.89033e-06
-1.3656e-07
0.00109186
3.8684e-06
-2.70966e-06
0.00110504
2.98532e-06
1.14567e-06
0.00109449
4.56359e-06
0.000884502
4.09857e-06
2.88106e-06
0.000866141
3.50871e-06
7.85526e-06
0.00108881
4.34905e-06
6.57187e-06
0.00110532
2.66908e-06
5.99426e-06
0.00109293
3.63789e-06
4.42112e-06
0.00108827
3.48834e-06
2.54242e-06
0.00108933
3.47354e-06
1.20352e-06
0.00109617
3.5706e-06
-1.35189e-06
0.00110954
2.51152e-06
1.79313e-06
0.00109481
4.2743e-06
0.000884742
3.84761e-06
3.52634e-06
0.000860914
3.08489e-06
8.48335e-06
0.00108729
4.22222e-06
7.4302e-06
0.00110821
2.35607e-06
7.20132e-06
0.00109604
3.43364e-06
5.74388e-06
0.00109171
3.15259e-06
3.90055e-06
0.00109312
3.12241e-06
2.74354e-06
0.00110035
3.35951e-06
8.31235e-08
0.00111397
2.10412e-06
2.52769e-06
0.00109588
4.04076e-06
0.000885375
3.62443e-06
4.47387e-06
0.000854527
2.73726e-06
9.47052e-06
0.00108564
4.19152e-06
8.7133e-06
0.00111062
2.08739e-06
8.7926e-06
0.00109879
3.28964e-06
7.45899e-06
0.00109494
2.90102e-06
5.62012e-06
0.00109681
2.85294e-06
4.53208e-06
0.0011045
3.23105e-06
1.64269e-06
0.00111849
1.79522e-06
3.37732e-06
0.00109763
3.94426e-06
0.000886635
3.36555e-06
5.75819e-06
0.000846677
2.50817e-06
1.08878e-05
0.00108367
4.17218e-06
1.05536e-05
0.00111258
1.91647e-06
1.09243e-05
0.00110122
3.20348e-06
9.69479e-06
0.00109799
2.72784e-06
7.80454e-06
0.00110048
2.65223e-06
6.66346e-06
0.00110872
3.15859e-06
3.40625e-06
0.00112324
1.54944e-06
4.35465e-06
0.0011
3.90799e-06
0.000888819
3.1309e-06
7.52476e-06
0.000837001
2.34673e-06
1.29513e-05
0.00108114
4.19035e-06
1.30896e-05
0.00111401
1.84251e-06
1.37391e-05
0.00110334
3.16568e-06
1.26027e-05
0.00110088
2.61516e-06
1.06076e-05
0.00110416
2.50169e-06
9.26869e-06
0.0011131
3.12745e-06
5.54819e-06
0.00112833
1.36029e-06
5.48242e-06
0.00110309
3.91119e-06
0.000892223
2.94405e-06
9.88274e-06
0.000824961
2.27785e-06
1.58078e-05
0.00107784
4.25521e-06
1.64779e-05
0.00111482
1.82579e-06
1.74097e-05
0.00110514
3.17021e-06
1.637e-05
0.00110362
2.56328e-06
1.42146e-05
0.00110792
2.4012e-06
1.25225e-05
0.00111778
3.13289e-06
8.21712e-06
0.00113393
1.22263e-06
6.83992e-06
0.00110718
3.92709e-06
0.000897131
2.85928e-06
1.29467e-05
0.000809843
2.33475e-06
1.96171e-05
0.00107359
4.38056e-06
2.09555e-05
0.00111491
1.9077e-06
2.2185e-05
0.0011066
3.23982e-06
2.12445e-05
0.00110624
2.59378e-06
1.88515e-05
0.00111186
2.36696e-06
1.66307e-05
0.00112292
3.1857e-06
1.15439e-05
0.00114025
1.15667e-06
8.56726e-06
0.00111262
3.96739e-06
0.000903936
2.87782e-06
1.68705e-05
0.000790823
2.54367e-06
2.46848e-05
0.00106802
4.61168e-06
2.6834e-05
0.00111422
2.15216e-06
2.83828e-05
0.00110773
3.40967e-06
2.75391e-05
0.00110879
2.74151e-06
2.48215e-05
0.00111609
2.42799e-06
2.18695e-05
0.00112873
3.30728e-06
1.57391e-05
0.00114759
1.18654e-06
1.07817e-05
0.00111982
4.06089e-06
0.000913172
3.00017e-06
2.18042e-05
0.000766971
2.97463e-06
3.13958e-05
0.00106058
5.01865e-06
3.44989e-05
0.00111265
2.60844e-06
3.64038e-05
0.00110852
3.72664e-06
3.56455e-05
0.00111131
3.04026e-06
3.25113e-05
0.00112075
2.61926e-06
2.85951e-05
0.00113545
3.52851e-06
2.1084e-05
0.00115632
1.34012e-06
1.36453e-05
0.00112931
4.22985e-06
0.00092554
3.26396e-06
2.78931e-05
0.000737262
3.72664e-06
4.01654e-05
0.00105047
5.70171e-06
4.44144e-05
0.00111005
3.35169e-06
4.67307e-05
0.00110896
4.25716e-06
4.60671e-05
0.00111385
3.54274e-06
4.24236e-05
0.00112597
2.99026e-06
3.72791e-05
0.00114338
3.89244e-06
2.79717e-05
0.00116692
1.65771e-06
1.73877e-05
0.00114182
4.51375e-06
0.000941988
3.71552e-06
3.52273e-05
0.000700642
4.97262e-06
5.13867e-05
0.00103666
6.78237e-06
5.71206e-05
0.00110621
4.48017e-06
5.99457e-05
0.00110903
5.09576e-06
5.94382e-05
0.00111644
4.33353e-06
5.52193e-05
0.00113191
3.61497e-06
4.8561e-05
0.00115287
4.46478e-06
3.6929e-05
0.00117999
2.1961e-06
2.23132e-05
0.00115836
4.97283e-06
0.000963794
4.42595e-06
4.37765e-05
0.000656209
6.90429e-06
6.54833e-05
0.00101779
8.44098e-06
7.32368e-05
0.00110079
6.12814e-06
7.67453e-05
0.00110869
6.37113e-06
7.65455e-05
0.00111908
5.52474e-06
7.177e-05
0.00113868
4.59821e-06
6.33208e-05
0.00116431
5.33865e-06
4.87061e-05
0.0011963
3.04231e-06
2.88865e-05
0.00118025
5.69569e-06
0.000992759
5.48951e-06
5.32939e-05
0.000603503
9.69063e-06
8.26697e-05
0.000992139
1.09019e-05
9.33977e-05
0.00109312
8.47974e-06
9.7949e-05
0.0011078
8.25753e-06
9.83731e-05
0.00112167
7.26698e-06
9.32382e-05
0.00114627
6.07743e-06
8.28045e-05
0.00117807
6.63584e-06
6.44247e-05
0.00121683
4.31256e-06
3.78142e-05
0.00120929
6.79854e-06
0.00103148
7.0395e-06
6.32144e-05
0.000542727
1.34708e-05
0.000102825
0.000957722
1.43927e-05
0.000118155
0.00108207
1.17248e-05
0.00012448
0.001106
1.09701e-05
0.00012614
0.00112396
9.74907e-06
0.000121195
0.00115449
8.22026e-06
0.000108828
0.00119439
8.49917e-06
8.58314e-05
0.00124274
6.14246e-06
5.02302e-05
0.00124805
8.42285e-06
0.00108385
9.23839e-06
7.26357e-05
0.000474726
1.81204e-05
0.000125062
0.000912562
1.90382e-05
0.000147676
0.00106572
1.60544e-05
0.000157284
0.00110246
1.47515e-05
0.000161319
0.00112538
1.31841e-05
0.000157745
0.00116274
1.1205e-05
0.000144087
0.00121318
1.10724e-05
0.000115795
0.00127524
8.6623e-06
6.82086e-05
0.00130012
1.07174e-05
0.00115611
1.22579e-05
8.02005e-05
0.000400863
2.29013e-05
0.000147619
0.000854767
2.46947e-05
0.000181499
0.00104121
2.16609e-05
0.000197179