/*--------------------------------*- C++ -*----------------------------------*\
| =========                 |                                                 |
| \\      /  F ield         | OpenFOAM: The Open Source CFD Toolbox           |
|  \\    /   O peration     | Version:  4.1                                   |
|   \\  /    A nd           | Web:      www.OpenFOAM.org                      |
|    \\/     M anipulation  |                                                 |
\*---------------------------------------------------------------------------*/
FoamFile
{
    version     2.0;
    format      ascii;
    class       volVectorField;
    location    "600";
    object      U;
}
// * * * * * * * * * * * * * * * * * * * * * * * * * * * * * * * * * * * * * //

dimensions      [0 1 -1 0 0 0 0];

internalField   nonuniform List<vector> 
12000
(
(0.0919763 -0.00968106 0.00967636)
(0.0965754 -0.00181611 0.0106522)
(0.0959867 -0.0013577 0.0110491)
(0.0955968 -0.000560406 0.0110673)
(0.0955 -0.000151223 0.0110962)
(0.0955002 0.000134354 0.0110962)
(0.0955972 0.000544807 0.0110675)
(0.095987 0.00134291 0.0110504)
(0.0965767 0.00180111 0.0106528)
(0.0919797 0.00969019 0.0096791)
(0.0861986 -0.00378277 0.00377212)
(0.095146 -0.00253647 0.00520537)
(0.0937333 -0.00196377 0.00562906)
(0.092657 -0.000883605 0.00560227)
(0.0923216 -0.000277586 0.00563589)
(0.0923231 0.00023585 0.00563559)
(0.0926613 0.00084486 0.00560065)
(0.0937384 0.00192333 0.00562622)
(0.0951516 0.0024904 0.0052143)
(0.0862067 0.00378445 0.00378655)
(0.082259 0.000810168 -0.000828071)
(0.0932519 -0.00255166 0.000154041)
(0.091965 -0.00163158 0.000449171)
(0.0907234 -0.000791938 0.000448546)
(0.0902446 -0.000299288 0.000486468)
(0.090249 0.000224163 0.000485385)
(0.0907343 0.000720548 0.000444923)
(0.091964 0.00156434 0.000438937)
(0.0932646 0.00249548 0.000155395)
(0.0823106 -0.000833645 -0.000825223)
(0.0795337 0.0027212 -0.00274722)
(0.0909832 -0.00250109 -0.00240527)
(0.0901791 -0.0011585 -0.00235217)
(0.0891431 -0.000664128 -0.00227725)
(0.0886372 -0.000300296 -0.00222538)
(0.0886438 0.00018276 -0.00222697)
(0.0891647 0.00055275 -0.00228193)
(0.0902035 0.00105919 -0.00235898)
(0.0910191 0.00242905 -0.00240536)
(0.079645 -0.00276688 -0.00274787)
(0.0781133 0.00320775 -0.00324473)
(0.0892926 -0.00242253 -0.00345521)
(0.0891318 -0.000779572 -0.00360736)
(0.0883112 -0.000619685 -0.00344583)
(0.0877967 -0.00031122 -0.00337987)
(0.0878066 0.000141075 -0.00338283)
(0.0883494 0.000461993 -0.00344348)
(0.0891852 0.000641707 -0.00361001)
(0.0893638 0.0023257 -0.00344846)
(0.0783093 -0.00328138 -0.00324996)
(0.0773353 0.00309502 -0.00314756)
(0.0882365 -0.00230756 -0.00371249)
(0.0886543 -0.000483653 -0.00408091)
(0.0879618 -0.000626932 -0.00383683)
(0.0874156 -0.000323138 -0.00378366)
(0.0874353 8.8564e-05 -0.00377957)
(0.0880146 0.000409339 -0.0038318)
(0.0887463 0.000290517 -0.00408108)
(0.0883296 0.00216872 -0.00372803)
(0.0776452 -0.00319937 -0.0031515)
(0.0766504 0.00277634 -0.00284867)
(0.0874363 -0.00218286 -0.00359088)
(0.0883918 -0.000275644 -0.00414445)
(0.087743 -0.000659841 -0.00386785)
(0.0871979 -0.000328567 -0.00382015)
(0.0872218 1.51838e-05 -0.0038049)
(0.0878166 0.000363324 -0.0038564)
(0.0885338 -6.18234e-09 -0.00414619)
(0.0875769 0.00198692 -0.00362243)
(0.077101 -0.00291434 -0.00284485)
(0.0758928 0.00240545 -0.00250456)
(0.0866845 -0.00206602 -0.00333448)
(0.0881447 -0.000153532 -0.00403588)
(0.0875325 -0.000711149 -0.00372941)
(0.0870085 -0.000334818 -0.00366315)
(0.0870168 -8.3784e-05 -0.00367941)
(0.0876312 0.000320212 -0.00371059)
(0.0883427 -0.000214126 -0.00402938)
(0.0869369 0.00180563 -0.00329966)
(0.07654 -0.00258769 -0.00249278)
(0.0750889 0.00203814 -0.00217507)
(0.0859976 -0.00196586 -0.00302537)
(0.0879138 -0.000100212 -0.00385887)
(0.0873438 -0.000780347 -0.00349129)
(0.0868113 -0.000357746 -0.00345727)
(0.0868537 -0.000203767 -0.00347798)
(0.0874468 0.000268181 -0.00347941)
(0.088199 -0.00037677 -0.00384582)
(0.0862993 0.0016187 -0.00296684)
(0.0760012 -0.0022844 -0.00216148)
(0.0742591 0.00169864 -0.0018849)
(0.0853559 -0.00188041 -0.00273297)
(0.0877228 -0.00010025 -0.00364344)
(0.0871346 -0.000873853 -0.00323091)
(0.086624 -0.000402047 -0.00324594)
(0.0867027 -0.00033943 -0.00323893)
(0.0872619 0.0001917 -0.00321938)
(0.0880988 -0.000528255 -0.00362958)
(0.085729 0.00142051 -0.00267068)
(0.0755261 -0.0020242 -0.00186655)
(0.0733976 0.00138619 -0.00163548)
(0.0847601 -0.00181342 -0.00248457)
(0.0875261 -0.000145204 -0.00341643)
(0.0869074 -0.000991161 -0.00297969)
(0.0864593 -0.00047529 -0.00300955)
(0.0865515 -0.000506796 -0.00300754)
(0.0870778 8.67048e-05 -0.0029766)
(0.0880442 -0.00067635 -0.00339066)
(0.0852266 0.00120293 -0.00241029)
(0.0751272 -0.00181067 -0.00160872)
(0.0724797 0.0010963 -0.0014257)
(0.0842114 -0.00177502 -0.00227468)
(0.087309 -0.000239885 -0.00317811)
(0.086667 -0.00114583 -0.00275079)
(0.0862799 -0.000593866 -0.00279745)
(0.0864064 -0.000716205 -0.00280693)
(0.086914 -5.29167e-05 -0.00276467)
(0.0879953 -0.000833546 -0.0031772)
(0.0848023 0.00097113 -0.00220523)
(0.0747992 -0.00163718 -0.0013825)
(0.071481 0.000815637 -0.00124677)
(0.0837046 -0.00178568 -0.00207517)
(0.0870267 -0.000394924 -0.00297103)
(0.0864036 -0.00135117 -0.00255294)
(0.0861017 -0.000773052 -0.00262028)
(0.08628 -0.000968448 -0.00264141)
(0.0867765 -0.000238577 -0.00258316)
(0.0879716 -0.00101242 -0.00299393)
(0.0845 0.000731849 -0.00202232)
(0.0745393 -0.0014968 -0.0011822)
(0.0703634 0.000531644 -0.00109451)
(0.0832148 -0.00186803 -0.00189038)
(0.0867052 -0.00062246 -0.00280994)
(0.0861262 -0.00161071 -0.00239199)
(0.0859319 -0.00102372 -0.00246873)
(0.0861815 -0.00127496 -0.00249818)
(0.0866791 -0.000483787 -0.00241708)
(0.087986 -0.00122197 -0.00282726)
(0.0843218 0.00047732 -0.0018513)
(0.0743622 -0.0013917 -0.00100576)
(0.069083 0.000233529 -0.000965146)
(0.0827108 -0.00203017 -0.00172094)
(0.0863534 -0.000939397 -0.00265923)
(0.0858358 -0.00194706 -0.00225163)
(0.0857662 -0.00136246 -0.00232813)
(0.0861115 -0.00165569 -0.00236271)
(0.0866342 -0.00080808 -0.00226502)
(0.088057 -0.00147869 -0.00267155)
(0.0842742 0.000195552 -0.00169442)
(0.074298 -0.00132266 -0.000851439)
(0.067579 -9.21012e-05 -0.000852331)
(0.08216 -0.00228178 -0.00156882)
(0.0859453 -0.00136576 -0.00249594)
(0.0855206 -0.00239107 -0.00212615)
(0.0856015 -0.00181662 -0.0021963)
(0.0860749 -0.00213652 -0.00223602)
(0.0866478 -0.00123471 -0.00212571)
(0.0882041 -0.00180609 -0.00252499)
(0.0843612 -0.000128729 -0.00155842)
(0.0743776 -0.00128894 -0.000715286)
(0.065769 -0.000460628 -0.000749513)
(0.0815276 -0.00264953 -0.0014299)
(0.085455 -0.00192948 -0.00233817)
(0.0851746 -0.00297122 -0.00201092)
(0.085429 -0.00242023 -0.00207036)
(0.0860699 -0.0027484 -0.00211655)
(0.0867322 -0.00179146 -0.00199668)
(0.0884467 -0.00223171 -0.00238566)
(0.0846158 -0.000513898 -0.00143866)
(0.0746344 -0.00129372 -0.000591177)
(0.0635438 -0.000887266 -0.000648984)
(0.0807519 -0.003165 -0.00129402)
(0.0848644 -0.00267096 -0.00218334)
(0.0847809 -0.00372662 -0.00190367)
(0.0852433 -0.00321549 -0.00194566)
(0.0860982 -0.00353078 -0.00200043)
(0.0868971 -0.00251498 -0.00187568)
(0.0888086 -0.00278649 -0.00224927)
(0.085069 -0.000983489 -0.00132715)
(0.0751092 -0.00134411 -0.000472318)
(0.0607646 -0.0013858 -0.000538606)
(0.0797416 -0.00385999 -0.00114989)
(0.0841447 -0.00364185 -0.00201762)
(0.0843213 -0.00471043 -0.00179657)
(0.0850328 -0.00425488 -0.00181648)
(0.0861587 -0.00453619 -0.00188071)
(0.0871569 -0.00345383 -0.00175554)
(0.0893165 -0.00351189 -0.00210989)
(0.0857647 -0.00156839 -0.00121698)
(0.0758552 -0.00145038 -0.000351592)
(0.0572584 -0.00196476 -0.000402535)
(0.0783653 -0.00477066 -0.000982185)
(0.0832462 -0.00490526 -0.00182992)
(0.0837656 -0.00598755 -0.00167933)
(0.0847694 -0.00560402 -0.00167703)
(0.0862439 -0.00583145 -0.00174877)
(0.0875239 -0.00467248 -0.00162814)
(0.0899929 -0.00446398 -0.00195746)
(0.0867565 -0.00231053 -0.00110061)
(0.0769435 -0.00162649 -0.000220003)
(0.0528208 -0.00261932 -0.000221981)
(0.0764235 -0.00593053 -0.000769537)
(0.0821011 -0.00653528 -0.00160482)
(0.0830712 -0.00763716 -0.00153874)
(0.0844216 -0.00734352 -0.00151715)
(0.0863345 -0.00750263 -0.00159361)
(0.0880073 -0.00625713 -0.00148368)
(0.0908696 -0.00571978 -0.00178265)
(0.0881143 -0.00326637 -0.000969517)
(0.0784676 -0.0018944 -6.76422e-05)
(0.0472289 -0.00331886 2.51661e-05)
(0.0736235 -0.00735105 -0.000486794)
(0.0806006 -0.00860461 -0.00131947)
(0.082175 -0.0097551 -0.00135691)
(0.0839355 -0.00957198 -0.00132504)
(0.0863911 -0.00966078 -0.00140251)
(0.0886058 -0.00832453 -0.00130952)
(0.0919845 -0.00738854 -0.00157484)
(0.0899256 -0.00451614 -0.000811096)
(0.0805564 -0.00228576 0.000119912)
(0.0402781 -0.00398527 0.000354569)
(0.0695753 -0.00899414 -0.00010504)
(0.0785445 -0.0111585 -0.000947549)
(0.0809766 -0.0124463 -0.00111005)
(0.0832283 -0.0124073 -0.00108248)
(0.0863434 -0.0124484 -0.0011552)
(0.089298 -0.0110339 -0.00108539)
(0.0933783 -0.00962955 -0.00131748)
(0.0923045 -0.00618139 -0.000608904)
(0.0833861 -0.00285322 0.000360613)
(0.0318582 -0.00446299 0.000756013)
(0.0637898 -0.0107168 0.000389227)
(0.0756062 -0.0141563 -0.000454049)
(0.0793074 -0.0158054 -0.000761551)
(0.0821667 -0.0159925 -0.000764156)
(0.0860637 -0.0160501 -0.000829658)
(0.0900157 -0.0146059 -0.00078468)
(0.0950804 -0.0126821 -0.000984459)
(0.0954009 -0.00845287 -0.000335701)
(0.0872289 -0.0036769 0.00068142)
(0.022081 -0.0044845 0.0011536)
(0.0557507 -0.0121967 0.000962877)
(0.0711952 -0.0173757 0.000185676)
(0.076819 -0.0198616 -0.00025898)
(0.0805279 -0.0204932 -0.000329928)
(0.0853469 -0.0207059 -0.000392478)
(0.0906171 -0.0193481 -0.000372752)
(0.0970993 -0.0169127 -0.000542648)
(0.0994229 -0.011654 4.32978e-05)
(0.0924776 -0.00491328 0.00112057)
(0.0114657 -0.00361768 0.00130182)
(0.0451341 -0.0128314 0.00145785)
(0.0644877 -0.0202735 0.000973243)
(0.0728756 -0.0244636 0.00048027)
(0.077913 -0.0260852 0.00028399)
(0.0838546 -0.0267458 0.000194678)
(0.0908058 -0.0257087 0.000192643)
(0.0993256 -0.0229014 5.18541e-05)
(0.104616 -0.0163289 0.000581308)
(0.0999224 -0.00678684 0.0017293)
(0.00117896 -0.00106867 0.001219)
(0.0318208 -0.0116983 0.00159213)
(0.0541617 -0.0219149 0.00175867)
(0.0661865 -0.0290567 0.00152192)
(0.0735317 -0.032763 0.00121625)
(0.0810527 -0.0345288 0.00101251)
(0.0901432 -0.034288 0.000961536)
(0.101579 -0.0315733 0.000853713)
(0.111372 -0.0235688 0.00135223)
(0.110626 -0.0100182 0.00260891)
(-0.00308881 0.00234387 0.00208343)
(0.0180297 -0.00780689 0.00212937)
(0.0397445 -0.0209729 0.00273239)
(0.0551604 -0.032629 0.00286512)
(0.0658931 -0.0402599 0.00254115)
(0.0757915 -0.0445132 0.00216029)
(0.087485 -0.0460016 0.00200021)
(0.10288 -0.0443536 0.00191347)
(0.119391 -0.0354137 0.00243228)
(0.128452 -0.0152274 0.0038368)
(-0.00603016 0.000409846 0.00101795)
(-0.00011941 -0.00462283 0.00246003)
(0.0187876 -0.0167115 0.00432403)
(0.0372936 -0.0321558 0.00511662)
(0.0526367 -0.0457676 0.00481457)
(0.0666443 -0.0556421 0.00402109)
(0.0820465 -0.0616576 0.00347694)
(0.10292 -0.0635478 0.00328162)
(0.128818 -0.0565157 0.00392513)
(0.155745 -0.0284968 0.00570566)
(-0.0122615 -0.00421728 -0.00162976)
(-0.0150112 -0.0137214 -0.00178985)
(-0.00482741 -0.0225961 0.000929639)
(0.0109686 -0.0333324 0.0045833)
(0.0281773 -0.0478472 0.00663001)
(0.0464789 -0.0638416 0.00676905)
(0.0660317 -0.079557 0.00602115)
(0.095087 -0.0896871 0.00529918)
(0.128121 -0.101467 0.00558702)
(0.216808 -0.0471306 0.00831907)
(0.0965722 -0.0106564 0.00180861)
(0.10133 -0.00138142 0.00137553)
(0.100923 -0.00122749 0.00149283)
(0.100649 -0.000463257 0.00146871)
(0.100605 -0.000115122 0.00148184)
(0.100605 0.000102279 0.00148179)
(0.100649 0.000451838 0.00146846)
(0.100925 0.00121835 0.00149179)
(0.101338 0.00137376 0.00137709)
(0.0965744 0.010738 0.00181733)
(0.0951346 -0.00521444 0.00251865)
(0.108584 -0.00243203 0.00241692)
(0.106236 -0.00200342 0.00251092)
(0.105041 -0.000789772 0.00246073)
(0.104806 -0.000243695 0.00249588)
(0.104808 0.000207707 0.00249609)
(0.105046 0.000755542 0.00246012)
(0.106243 0.00197136 0.00249895)
(0.108604 0.0023785 0.00241334)
(0.0951203 0.0052613 0.00252541)
(0.0932275 -0.000168854 0.0025231)
(0.111602 -0.0029466 0.00292009)
(0.109174 -0.00173007 0.00286703)
(0.107561 -0.000684464 0.00280505)
(0.107198 -0.000282189 0.00284737)
(0.107202 0.000209427 0.00284645)
(0.10757 0.000612313 0.00280342)
(0.10921 0.00166525 0.0028641)
(0.111596 0.00289825 0.00292589)
(0.0932725 0.000159304 0.00252378)
(0.0909373 0.00238341 0.00246039)
(0.11141 -0.00318183 0.00314389)
(0.109961 -0.00125693 0.00309254)
(0.108403 -0.00054685 0.00305104)
(0.108027 -0.000302897 0.00309846)
(0.108036 0.000189338 0.00309705)
(0.108422 0.000438645 0.00304952)
(0.110001 0.00115665 0.00309732)
(0.111387 0.00311043 0.00314564)
(0.0910526 -0.00243752 0.00245519)
(0.0892154 0.00342253 0.00236449)
(0.110489 -0.0033115 0.00325905)
(0.109896 -0.000839059 0.00323433)
(0.108538 -0.000529345 0.00324594)
(0.108159 -0.000332686 0.00329241)
(0.108174 0.000171139 0.00329614)
(0.108565 0.000377016 0.00324177)
(0.109938 0.00070015 0.00323552)
(0.110465 0.00319224 0.00324275)
(0.0894339 -0.00351705 0.00235822)
(0.0881158 0.00366508 0.0022278)
(0.109536 -0.00337478 0.00330534)
(0.109774 -0.000513376 0.00324081)
(0.108568 -0.000588422 0.00330038)
(0.108168 -0.000352268 0.00335241)
(0.108182 0.000131835 0.00335248)
(0.108616 0.000384752 0.00329681)
(0.109827 0.000325856 0.00324103)
(0.109568 0.00322535 0.00329813)
(0.0884465 -0.00381358 0.00222087)
(0.0872525 0.00352529 0.00207862)
(0.108674 -0.00334783 0.00325264)
(0.109654 -0.000261505 0.00315847)
(0.108596 -0.000668527 0.00328301)
(0.108138 -0.000351683 0.00331443)
(0.108164 5.57292e-05 0.00329854)
(0.108673 0.000406222 0.00328215)
(0.109735 2.37123e-05 0.00315343)
(0.10872 0.00319004 0.00328673)
(0.087754 -0.0037217 0.00207324)
(0.0864086 0.00324045 0.00192356)
(0.107946 -0.00330675 0.0031721)
(0.109511 -8.56533e-05 0.00305257)
(0.108558 -0.000763959 0.00325333)
(0.108064 -0.000347149 0.00321421)
(0.108131 -4.99503e-05 0.00322209)
(0.108679 0.000417259 0.00324083)
(0.109641 -0.000224212 0.00304928)
(0.107903 0.00304667 0.00316435)
(0.0871883 -0.00341704 0.00192842)
(0.0855992 0.00289307 0.00176381)
(0.107288 -0.00324389 0.00306507)
(0.109336 9.39058e-06 0.00295205)
(0.108443 -0.000880997 0.00317202)
(0.107986 -0.000347156 0.00309519)
(0.108048 -0.000178231 0.0031189)
(0.108654 0.000416728 0.00316931)
(0.109517 -0.000434068 0.00293845)
(0.107329 0.00287063 0.00302753)
(0.0866512 -0.00310901 0.00177914)
(0.0847933 0.002554 0.00160411)
(0.10677 -0.00317015 0.00294078)
(0.109138 3.52069e-05 0.00282955)
(0.108345 -0.00101479 0.00305764)
(0.10792 -0.000360776 0.0029808)
(0.107982 -0.000332454 0.0029792)
(0.108648 0.000405672 0.00307255)
(0.109415 -0.00060709 0.00281338)
(0.106917 0.00270561 0.0029085)
(0.0862155 -0.00285001 0.00163074)
(0.0839853 0.00224777 0.001443)
(0.106327 -0.00312418 0.00282558)
(0.108958 5.2346e-07 0.00269254)
(0.108268 -0.00116636 0.0029442)
(0.107862 -0.000401217 0.00284357)
(0.107959 -0.000513394 0.00283258)
(0.108689 0.000371369 0.00297721)
(0.109348 -0.000762551 0.00266638)
(0.106622 0.00253237 0.0027951)
(0.0858832 -0.00263533 0.00148489)
(0.0831587 0.00196713 0.00128916)
(0.105889 -0.00311403 0.00272191)
(0.108784 -9.28754e-05 0.00253787)
(0.108203 -0.00134212 0.00283086)
(0.107841 -0.000476407 0.00270641)
(0.107974 -0.000720923 0.00270004)
(0.108754 0.00030328 0.00288814)
(0.10935 -0.000919159 0.00252139)
(0.106405 0.00236343 0.00269992)
(0.0856635 -0.00247824 0.00134578)
(0.0822901 0.00167763 0.00114893)
(0.105408 -0.00313032 0.0026047)
(0.108639 -0.000241018 0.00240148)
(0.108141 -0.00155023 0.00272323)
(0.107833 -0.000595196 0.00258985)
(0.108007 -0.000964831 0.00258299)
(0.108839 0.000190756 0.00280099)
(0.109399 -0.00108068 0.00239262)
(0.106205 0.0021693 0.00260199)
(0.0855901 -0.00234822 0.00122489)
(0.081334 0.00137533 0.00102365)
(0.104889 -0.00316609 0.00247102)
(0.108477 -0.000456784 0.00230621)
(0.10807 -0.00180499 0.00262763)
(0.107822 -0.000774956 0.0024846)
(0.108048 -0.00125487 0.00247245)
(0.108941 1.78282e-05 0.00271345)
(0.109493 -0.00126672 0.00227395)
(0.106047 0.00193155 0.00248483)
(0.0856671 -0.00223789 0.00112733)
(0.0802386 0.00105619 0.000916249)
(0.10433 -0.00323826 0.00232758)
(0.108259 -0.000752817 0.00221952)
(0.10798 -0.00211935 0.00253557)
(0.107807 -0.00103538 0.0023855)
(0.108102 -0.00160454 0.00236686)
(0.109067 -0.000230029 0.00262316)
(0.109638 -0.00149306 0.00216853)
(0.10596 0.0016483 0.00235471)
(0.0858992 -0.00215077 0.00104868)
(0.0789393 0.000717416 0.000825562)
(0.103719 -0.00338222 0.00219045)
(0.107991 -0.00114056 0.00213071)
(0.10787 -0.00251278 0.00244981)
(0.107789 -0.0013978 0.00229561)
(0.108174 -0.00203207 0.00226927)
(0.10923 -0.000569285 0.00253469)
(0.109847 -0.00177747 0.00207783)
(0.106007 0.00132332 0.00223422)
(0.0862687 -0.00209269 0.000985833)
(0.0773716 0.000346368 0.000752004)
(0.10302 -0.00362261 0.00206806)
(0.107672 -0.00164448 0.00205918)
(0.107732 -0.00301424 0.00237456)
(0.107771 -0.00188984 0.00222243)
(0.108274 -0.00256301 0.00218479)
(0.109443 -0.00102317 0.00245255)
(0.110138 -0.00213892 0.00200205)
(0.106204 0.000944116 0.00213018)
(0.0868139 -0.00206647 0.000943193)
(0.0754524 -7.40981e-05 0.000702543)
(0.102195 -0.00397878 0.00196489)
(0.107281 -0.0022996 0.00201572)
(0.107563 -0.00365847 0.00231644)
(0.107752 -0.00254763 0.00217168)
(0.108408 -0.00323082 0.00211933)
(0.109726 -0.00162296 0.00238193)
(0.110537 -0.00260441 0.0019438)
(0.10659 0.000486784 0.00204231)
(0.0875802 -0.00207564 0.000925285)
(0.0730816 -0.000557416 0.00068967)
(0.101196 -0.00448311 0.00189187)
(0.106798 -0.00314787 0.00199902)
(0.107353 -0.00448709 0.00228226)
(0.107731 -0.00341584 0.00214325)
(0.108587 -0.00407759 0.0020772)
(0.110099 -0.00241072 0.00232879)
(0.111075 -0.00320852 0.0019093)
(0.107215 -7.42197e-05 0.00197551)
(0.0886318 -0.00212672 0.000937336)
(0.0701503 -0.00111591 0.00073031)
(0.0999408 -0.00517096 0.00186511)
(0.106209 -0.00424094 0.00201651)
(0.107097 -0.00555432 0.00228044)
(0.107717 -0.00454952 0.00214656)
(0.108823 -0.00515901 0.00206446)
(0.110591 -0.00344138 0.00229992)
(0.111805 -0.0039985 0.00190551)
(0.108148 -0.000771218 0.00193897)
(0.0900532 -0.00223237 0.000986727)
(0.0665332 -0.00175705 0.000847033)
(0.0983224 -0.00607067 0.00190277)
(0.105486 -0.00564154 0.00208527)
(0.106786 -0.00692644 0.00232312)
(0.10771 -0.00601849 0.00219569)
(0.109132 -0.00654816 0.00209226)
(0.111235 -0.00478772 0.00230614)
(0.112786 -0.00503959 0.00194047)
(0.109476 -0.00165083 0.0019447)
(0.0919611 -0.00240994 0.00108543)
(0.0620859 -0.00247217 0.00106843)
(0.096196 -0.0072113 0.00203715)
(0.104588 -0.00741585 0.00222238)
(0.106408 -0.00868427 0.00242732)
(0.107704 -0.00790869 0.00230709)
(0.109527 -0.00834134 0.0021779)
(0.112067 -0.00654903 0.00236344)
(0.114097 -0.0064256 0.0020281)
(0.111319 -0.00278153 0.0020093)
(0.0945142 -0.00268938 0.00125092)
(0.0566711 -0.00323188 0.00142145)
(0.0933514 -0.00859524 0.00230026)
(0.103442 -0.00962698 0.00246119)
(0.10594 -0.0109246 0.00261906)
(0.107684 -0.0103269 0.00250314)
(0.110012 -0.010666 0.00234399)
(0.113125 -0.00886335 0.00249338)
(0.115827 -0.00829396 0.00218913)
(0.11384 -0.00426882 0.00215667)
(0.097937 -0.00311337 0.0015099)
(0.0501416 -0.00395844 0.00191162)
(0.0895159 -0.0101814 0.00272056)
(0.1019 -0.0123056 0.00283431)
(0.105325 -0.0137551 0.00293356)
(0.10761 -0.0134065 0.00281664)
(0.110569 -0.0136939 0.00262331)
(0.114438 -0.0119262 0.00272492)
(0.118089 -0.0108539 0.00245335)
(0.117259 -0.00627818 0.00242002)
(0.102564 -0.00375316 0.00190026)
(0.0423931 -0.00450072 0.00247902)
(0.0842937 -0.0118424 0.00329267)
(0.0996956 -0.0154072 0.00338197)
(0.104449 -0.0172808 0.00342316)
(0.107402 -0.0173107 0.00328968)
(0.11114 -0.0176564 0.00306265)
(0.116016 -0.0160225 0.00310253)
(0.121007 -0.0144343 0.00286046)
(0.121901 -0.00909473 0.00284827)
(0.108881 -0.00474459 0.0024795)
(0.0334414 -0.00459865 0.00293778)
(0.0772194 -0.01328 0.00394158)
(0.096358 -0.0187342 0.00414488)
(0.103063 -0.0215685 0.004169)
(0.106906 -0.0222533 0.00399363)
(0.11158 -0.0228639 0.00371116)
(0.117776 -0.0215701 0.00367961)
(0.124674 -0.0195659 0.00346655)
(0.128187 -0.0132036 0.00350497)
(0.117815 -0.00627446 0.00332559)
(0.0235501 -0.00391115 0.00297783)
(0.0677169 -0.0139766 0.00440377)
(0.0910574 -0.0218261 0.00510973)
(0.100669 -0.026524 0.00528789)
(0.105865 -0.0284556 0.00504391)
(0.111676 -0.0297267 0.00464478)
(0.119572 -0.0291638 0.00451471)
(0.129157 -0.027134 0.00433983)
(0.136783 -0.0195932 0.00449591)
(0.130585 -0.00906434 0.00456312)
(0.014284 -0.0019046 0.00310222)
(0.0560318 -0.0132238 0.00486387)
(0.0829258 -0.0240368 0.00629899)
(0.0963698 -0.0318631 0.00684169)
(0.103688 -0.0361099 0.00654319)
(0.110893 -0.0387702 0.00593501)
(0.120801 -0.0396382 0.00563162)
(0.134046 -0.0385151 0.00548978)
(0.147917 -0.030233 0.00587973)
(0.151445 -0.0134775 0.00634763)
(0.00832233 -0.000244437 0.00347214)
(0.0425968 -0.0108207 0.00577853)
(0.071115 -0.024123 0.00787281)
(0.0889862 -0.0362619 0.00892267)
(0.0997372 -0.0447267 0.00858562)
(0.10896 -0.0504645 0.0076432)
(0.121098 -0.0540781 0.00703151)
(0.139115 -0.05576 0.00687287)
(0.162144 -0.0490607 0.00776169)
(0.182912 -0.0255286 0.0088843)
(0.00510984 -0.00242971 0.000941253)
(0.0294841 -0.0108563 0.00501056)
(0.056304 -0.0242777 0.00814264)
(0.0769782 -0.038915 0.00993593)
(0.0914776 -0.0520641 0.0100075)
(0.103712 -0.0632778 0.008972)
(0.117379 -0.0733849 0.0079796)
(0.141537 -0.0808618 0.00768214)
(0.170725 -0.0898699 0.00913628)
(0.249516 -0.0418729 0.0121614)
(0.0959841 -0.0110532 0.00134961)
(0.100923 -0.00149848 0.00122136)
(0.100652 -0.00117496 0.00116931)
(0.10041 -0.000460837 0.00118187)
(0.100368 -0.000114147 0.00118748)
(0.100368 0.000102573 0.00118739)
(0.100411 0.000450924 0.0011815)
(0.100655 0.00116765 0.00116864)
(0.100927 0.00149503 0.0012221)
(0.0959848 0.0111634 0.00135313)
(0.0937235 -0.00563797 0.00194257)
(0.106237 -0.00252672 0.00198789)
(0.103704 -0.00192235 0.0019079)
(0.102534 -0.000788042 0.0019418)
(0.102294 -0.000238121 0.00195175)
(0.102296 0.000205595 0.00195153)
(0.10254 0.000758918 0.00194059)
(0.103719 0.00188966 0.00190375)
(0.106268 0.00246525 0.00198671)
(0.0937014 0.00568105 0.00194618)
(0.0919414 -0.000462434 0.00159853)
(0.109176 -0.00289273 0.00170281)
(0.106082 -0.00163196 0.00160301)
(0.104436 -0.000653824 0.00163281)
(0.104086 -0.000270385 0.00164217)
(0.10409 0.000199984 0.00164186)
(0.104449 0.000587351 0.00163264)
(0.106091 0.00156524 0.00160039)
(0.109163 0.0028449 0.00170001)
(0.0919943 0.000440907 0.00159692)
(0.0901328 0.00233467 0.00111207)
(0.109961 -0.0031299 0.00121281)
(0.107104 -0.00112143 0.00107542)
(0.105499 -0.000499963 0.00109947)
(0.105147 -0.000289483 0.0011101)
(0.105154 0.000177625 0.00110967)
(0.105522 0.000395204 0.00109955)
(0.107126 0.00102268 0.00107415)
(0.109948 0.00305755 0.00121041)
(0.0902591 -0.00239274 0.0011079)
(0.0890585 0.0035773 0.000710722)
(0.109888 -0.00328148 0.000774515)
(0.107588 -0.000677666 0.000611788)
(0.106127 -0.000490082 0.000637386)
(0.10577 -0.000324578 0.000655102)
(0.105782 0.000163061 0.000655322)
(0.106163 0.000339828 0.000638464)
(0.107622 0.000538191 0.00061042)
(0.109895 0.00317972 0.000773468)
(0.0892702 -0.00368472 0.000710188)
(0.0885389 0.00404448 0.000387333)
(0.109768 -0.00330622 0.000422001)
(0.108107 -0.000303657 0.000211395)
(0.10673 -0.000558012 0.000240871)
(0.106324 -0.00034669 0.000261422)
(0.106344 0.000124714 0.000262953)
(0.106782 0.000355966 0.000242182)
(0.108159 0.000116066 0.000211999)
(0.109801 0.00316942 0.000420581)
(0.088865 -0.00418826 0.000387362)
(0.0882252 0.00410684 0.000146422)
(0.109642 -0.00326149 0.000133146)
(0.108676 5.56592e-06 -0.000136061)
(0.107339 -0.000644901 -9.73121e-05)
(0.106884 -0.000344126 -7.81211e-05)
(0.10691 4.50332e-05 -7.88037e-05)
(0.107417 0.000381338 -9.44319e-05)
(0.108758 -0.00025214 -0.000131191)
(0.109724 0.0030819 0.000143254)
(0.088695 -0.00428955 0.000137829)
(0.0879252 0.00394571 -2.46842e-05)
(0.109463 -0.00317667 -8.28514e-05)
(0.109183 0.000235279 -0.000412493)
(0.107885 -0.000748046 -0.000352905)
(0.107399 -0.000328212 -0.000346818)
(0.107434 -6.856e-05 -0.000350654)
(0.107996 0.000399846 -0.000350474)
(0.109311 -0.00056857 -0.000412313)
(0.109604 0.00293549 -6.23064e-05)
(0.0885858 -0.00416108 -2.86938e-05)
(0.0875962 0.00371553 -0.000142421)
(0.109275 -0.00308378 -0.000233945)
(0.109619 0.00038393 -0.000615944)
(0.108352 -0.000872493 -0.000525949)
(0.107852 -0.000311743 -0.000545826)
(0.107903 -0.000210387 -0.000544049)
(0.108505 0.000413509 -0.000530149)
(0.109804 -0.000834492 -0.000620677)
(0.109517 0.00278723 -0.000222526)
(0.088479 -0.00397038 -0.000135283)
(0.087244 0.00346627 -0.000222876)
(0.109107 -0.00300599 -0.000343884)
(0.110012 0.000458662 -0.00076078)
(0.10876 -0.00101389 -0.000645342)
(0.108262 -0.000307379 -0.000686449)
(0.108334 -0.000379249 -0.000683247)
(0.108967 0.000416725 -0.000655348)
(0.110273 -0.00105291 -0.000769289)
(0.109449 0.00262146 -0.00032831)
(0.0884475 -0.00376967 -0.000212678)
(0.0868497 0.00318993 -0.000286423)
(0.10895 -0.0029376 -0.000415264)
(0.110372 0.000469454 -0.000862233)
(0.109127 -0.00117169 -0.000726857)
(0.108647 -0.000325476 -0.000786951)
(0.108739 -0.000571589 -0.00078881)
(0.109406 0.000391564 -0.000743954)
(0.110732 -0.0012492 -0.000881969)
(0.109446 0.00242424 -0.000403744)
(0.0884558 -0.00356737 -0.000263601)
(0.0863737 0.00291502 -0.000340457)
(0.108808 -0.00289944 -0.000452722)
(0.110687 0.000422894 -0.000933351)
(0.109457 -0.001348 -0.000779344)
(0.109005 -0.000375072 -0.000863598)
(0.109126 -0.000789773 -0.000868912)
(0.10983 0.000328883 -0.000802306)
(0.111177 -0.00144166 -0.000967435)
(0.109518 0.00221538 -0.000452308)
(0.0884971 -0.00338487 -0.000303484)
(0.0858046 0.00263116 -0.000377935)
(0.108648 -0.00289009 -0.000463823)
(0.110953 0.000318051 -0.00098722)
(0.109751 -0.00155188 -0.000812356)
(0.109338 -0.000467379 -0.000917756)
(0.1095 -0.00104248 -0.000926392)
(0.110245 0.000222366 -0.000836929)
(0.111622 -0.00163983 -0.00102963)
(0.109663 0.00200093 -0.000477285)
(0.0885851 -0.00323543 -0.000334964)
(0.0850971 0.00234942 -0.000394688)
(0.108474 -0.00292287 -0.000461364)
(0.111171 0.000149787 -0.00102169)
(0.110009 -0.0018004 -0.000829956)
(0.109651 -0.000619177 -0.000952203)
(0.109867 -0.00133885 -0.000964897)
(0.110661 6.23507e-05 -0.000854366)
(0.112083 -0.00185415 -0.0010761)
(0.10987 0.00177801 -0.000485801)
(0.0887506 -0.00312121 -0.000350853)
(0.0842302 0.00205023 -0.00039292)
(0.108254 -0.00301717 -0.000444976)
(0.111342 -9.62568e-05 -0.00103639)
(0.110235 -0.00210623 -0.000834182)
(0.109947 -0.000849665 -0.000970485)
(0.110233 -0.00169102 -0.00098877)
(0.111088 -0.000166044 -0.000858713)
(0.112572 -0.00209758 -0.00110842)
(0.110137 0.0015255 -0.000481927)
(0.0890258 -0.00302711 -0.000352633)
(0.0831596 0.00171815 -0.000375321)
(0.107967 -0.00318108 -0.000414237)
(0.111456 -0.000437176 -0.00103562)
(0.110431 -0.00248443 -0.000827516)
(0.110229 -0.00117934 -0.000974112)
(0.110603 -0.0021157 -0.000999913)
(0.111538 -0.000481086 -0.000852528)
(0.113103 -0.00238819 -0.00112756)
(0.110491 0.0012282 -0.000473015)
(0.0894339 -0.00294688 -0.000339265)
(0.0818235 0.00134177 -0.000343065)
(0.107593 -0.0034233 -0.000368899)
(0.111502 -0.000895577 -0.00101569)
(0.110595 -0.00296023 -0.000808812)
(0.110497 -0.00163366 -0.0009628)
(0.110986 -0.0026358 -0.000998546)
(0.112026 -0.000904588 -0.000836184)
(0.113694 -0.00274521 -0.0011329)
(0.11096 0.000876161 -0.000458256)
(0.090011 -0.00289336 -0.000312736)
(0.0801365 0.00091458 -0.000291517)
(0.107115 -0.00377234 -0.000307045)
(0.111475 -0.00150095 -0.000971127)
(0.110725 -0.00356519 -0.000775775)
(0.110755 -0.00224519 -0.000933867)
(0.111393 -0.00328158 -0.000982728)
(0.112569 -0.00146623 -0.00080882)
(0.114371 -0.00319375 -0.00112302)
(0.111583 0.000452842 -0.000436589)
(0.0908008 -0.00287297 -0.000272826)
(0.0780196 0.000424022 -0.000211282)
(0.106481 -0.00425685 -0.000220081)
(0.111365 -0.00229302 -0.000895992)
(0.110821 -0.00433736 -0.000723551)
(0.111007 -0.00305501 -0.000883217)
(0.111834 -0.00409163 -0.000948872)
(0.113191 -0.00220441 -0.000767775)
(0.115167 -0.00376594 -0.00109587)
(0.112405 -6.62446e-05 -0.00040547)
(0.091866 -0.00289146 -0.00021626)
(0.0753691 -0.00014036 -9.01368e-05)
(0.105628 -0.00490526 -9.52419e-05)
(0.111162 -0.00331866 -0.000780865)
(0.110883 -0.00532337 -0.000644531)
(0.111259 -0.00411347 -0.00080513)
(0.112326 -0.00511608 -0.000891292)
(0.113917 -0.00316943 -0.000708743)
(0.116124 -0.0045047 -0.00104753)
(0.11349 -0.00071489 -0.000361306)
(0.093287 -0.00296091 -0.000138298)
(0.0720885 -0.000786656 9.26085e-05)
(0.104463 -0.00573733 8.37297e-05)
(0.110846 -0.00463029 -0.000611784)
(0.110909 -0.00657956 -0.000527082)
(0.111515 -0.00548183 -0.000689628)
(0.112881 -0.00641983 -0.000801297)
(0.114782 -0.00442809 -0.00062421)
(0.117295 -0.00546971 -0.000971485)
(0.114923 -0.00153694 -0.000297989)
(0.095174 -0.00309616 -3.11207e-05)
(0.0680607 -0.0015039 0.000363073)
(0.102875 -0.00677611 0.00034039)
(0.110396 -0.00628367 -0.000369052)
(0.110897 -0.00817286 -0.000354562)
(0.111777 -0.00723369 -0.000522723)
(0.113514 -0.008087 -0.000665836)
(0.115821 -0.0060698 -0.000502858)
(0.118749 -0.00674527 -0.000856985)
(0.116818 -0.00259485 -0.000205446)
(0.0976771 -0.00332409 0.00011722)
(0.0632253 -0.00226508 0.000749552)
(0.100701 -0.00802076 0.000705723)
(0.109762 -0.00832458 -2.68296e-05)
(0.110839 -0.0101806 -0.000102825)
(0.112041 -0.00945688 -0.00028414)
(0.114233 -0.0102272 -0.000466155)
(0.117074 -0.00821733 -0.000328356)
(0.120573 -0.00845408 -0.000688325)
(0.119331 -0.00398463 -6.89557e-05)
(0.101014 -0.00368241 0.0003237)
(0.057541 -0.00300553 0.0012776)
(0.0977612 -0.00944209 0.00121383)
(0.108865 -0.010774 0.000447446)
(0.110713 -0.0126851 0.000262086)
(0.11229 -0.0122543 5.3723e-05)
(0.115029 -0.0129831 -0.000177162)
(0.118575 -0.0110431 -7.91195e-05)