/*--------------------------------*- C++ -*----------------------------------*\
| =========                 |                                                 |
| \\      /  F ield         | OpenFOAM: The Open Source CFD Toolbox           |
|  \\    /   O peration     | Version:  4.1                                   |
|   \\  /    A nd           | Web:      www.OpenFOAM.org                      |
|    \\/     M anipulation  |                                                 |
\*---------------------------------------------------------------------------*/
FoamFile
{
    version     2.0;
    format      ascii;
    class       volScalarField;
    location    "300";
    object      epsilon;
}
// * * * * * * * * * * * * * * * * * * * * * * * * * * * * * * * * * * * * * //

dimensions      [0 2 -3 0 0 0 0];

internalField   nonuniform List<scalar> 
12000
(
0.319853
0.312333
0.311043
0.310744
0.310671
0.310672
0.310748
0.311042
0.312165
0.31966
0.065144
0.0635807
0.0626468
0.062204
0.0620696
0.0620699
0.0622054
0.0626574
0.0636251
0.0652354
0.0176455
0.017692
0.0173312
0.0170942
0.0170081
0.0170085
0.0170947
0.0173304
0.0177031
0.0176632
0.00614188
0.00634114
0.00621041
0.00609823
0.00605125
0.00605134
0.00609735
0.00620223
0.00634586
0.00615646
0.00262539
0.00276672
0.0027248
0.00267181
0.00264576
0.00264594
0.00267153
0.00271925
0.00276975
0.00263425
0.00131809
0.00140573
0.00139648
0.00136976
0.00135442
0.00135467
0.00137016
0.00139429
0.00140782
0.00132311
0.000747396
0.000803042
0.00080526
0.000790703
0.000781105
0.000781364
0.000791397
0.000805176
0.000804458
0.000751258
0.00046445
0.00050152
0.0005078
0.000499298
0.000492966
0.000493191
0.000499964
0.0005083
0.000502557
0.000467861
0.000309542
0.00033585
0.000343169
0.000337841
0.000333347
0.000333611
0.000338527
0.000343993
0.000336818
0.00031272
0.00021792
0.000237492
0.000244677
0.000241324
0.000238192
0.000238467
0.000241748
0.000245454
0.000238491
0.000221074
0.000160342
0.000175918
0.000182382
0.000179939
0.000177808
0.000177957
0.000180497
0.000183218
0.000176409
0.000163466
0.000122267
0.00013514
0.000140905
0.000139039
0.000137475
0.000137746
0.000139594
0.000141709
0.00013557
0.000125396
9.59693e-05
0.000106876
0.000112021
0.000110637
0.000109527
0.0001098
0.00011127
0.000113026
0.000107683
9.92375e-05
7.71456e-05
8.66738e-05
9.12917e-05
9.0359e-05
8.95297e-05
8.9783e-05
9.10121e-05
9.24194e-05
8.76953e-05
8.06258e-05
6.32336e-05
7.1709e-05
7.59776e-05
7.53345e-05
7.46985e-05
7.49676e-05
7.60078e-05
7.72071e-05
7.30496e-05
6.70098e-05
5.26686e-05
6.04511e-05
6.43468e-05
6.39553e-05
6.34972e-05
6.37864e-05
6.46859e-05
6.57061e-05
6.1959e-05
5.67803e-05
4.44249e-05
5.16906e-05
5.53321e-05
5.51119e-05
5.47892e-05
5.50948e-05
5.5901e-05
5.68483e-05
5.3458e-05
4.89605e-05
3.78233e-05
4.47282e-05
4.81912e-05
4.81324e-05
4.79518e-05
4.82967e-05
4.90182e-05
4.989e-05
4.68397e-05
4.28575e-05
3.2395e-05
3.90469e-05
4.24062e-05
4.2476e-05
4.24116e-05
4.27722e-05
4.34964e-05
4.43905e-05
4.16728e-05
3.80905e-05
2.78016e-05
3.42982e-05
3.76244e-05
3.7879e-05
3.79638e-05
3.83878e-05
3.90603e-05
3.99225e-05
3.75261e-05
3.42702e-05
2.37927e-05
3.02137e-05
3.35765e-05
3.40095e-05
3.41862e-05
3.46491e-05
3.53842e-05
3.63529e-05
3.4323e-05
3.13047e-05
2.01652e-05
2.65813e-05
3.01166e-05
3.07881e-05
3.11226e-05
3.16953e-05
3.2392e-05
3.33525e-05
3.16588e-05
2.88791e-05
1.67555e-05
2.31968e-05
2.70196e-05
2.79304e-05
2.83502e-05
2.90015e-05
2.98475e-05
3.09963e-05
2.97207e-05
2.71061e-05
1.33938e-05
1.98814e-05
2.42104e-05
2.55047e-05
2.61371e-05
2.69225e-05
2.77342e-05
2.89301e-05
2.80355e-05
2.56445e-05
9.96221e-06
1.64203e-05
2.13816e-05
2.31196e-05
2.38789e-05
2.4813e-05
2.591e-05
2.73991e-05
2.69456e-05
2.48256e-05
6.24183e-06
1.26873e-05
1.85125e-05
2.09936e-05
2.21483e-05
2.32113e-05
2.42504e-05
2.59376e-05
2.58999e-05
2.41932e-05
2.60235e-06
8.45707e-06
1.51014e-05
1.83863e-05
1.99217e-05
2.13425e-05
2.28379e-05
2.49701e-05
2.54192e-05
2.41932e-05
1.35984e-06
4.52796e-06
1.11131e-05
1.5637e-05
1.81291e-05
1.96937e-05
2.10766e-05
2.37082e-05
2.5001e-05
2.47007e-05
2.03676e-06
3.52944e-06
5.91438e-06
1.00595e-05
1.45658e-05
1.75933e-05
1.96787e-05
2.25722e-05
2.496e-05
2.50536e-05
4.10851e-06
6.02647e-06
6.4683e-06
6.78676e-06
8.7748e-06
1.21298e-05
1.60164e-05
2.04803e-05
2.41376e-05
2.74983e-05
0.312331
0.996466
0.995138
0.994457
0.994353
0.994353
0.994458
0.995136
0.997033
0.312546
0.0635768
0.0443175
0.0164817
0.0161716
0.0161858
0.0161924
0.016186
0.0165486
0.0439902
0.0640354
0.0176885
0.0015843
0.000546357
0.000530386
0.000529013
0.000529007
0.00053006
0.000546224
0.0015611
0.017814
0.00633837
0.000278778
0.00015708
0.000148914
0.000147292
0.000146787
0.000147313
0.000149475
0.000277878
0.00639748
0.0027645
0.000115541
4.99765e-05
4.67909e-05
4.50955e-05
4.49232e-05
4.51818e-05
4.45103e-05
0.000116639
0.00278752
0.00140387
5.60195e-05
1.94294e-05
1.92213e-05
1.91615e-05
1.89234e-05
1.8743e-05
1.92926e-05
5.36774e-05
0.00141137
0.000801413
3.06921e-05
1.16809e-05
1.26535e-05
1.45917e-05
1.52832e-05
1.50686e-05
1.45112e-05
3.05218e-05
0.000803727
0.00050004
2.26029e-05
9.30461e-06
1.32057e-05
1.49351e-05
1.71127e-05
1.65198e-05
1.44885e-05
1.94364e-05
0.000501284
0.000334472
1.57433e-05
1.1181e-05
1.38333e-05
1.54321e-05
1.51255e-05
1.57678e-05
1.36201e-05
2.35708e-05
0.000335763
0.000236169
1.7198e-05
8.38884e-06
1.33652e-05
1.03004e-05
1.39e-05
1.22157e-05
1.19023e-05
2.2816e-05
0.000237975
0.000174617
2.31459e-05
1.22589e-05
8.47111e-06
1.69227e-05
8.08535e-06
1.15722e-05
9.1024e-06
2.38105e-05
0.000176198
0.000133827
2.06066e-05
1.08919e-05
1.30406e-05
1.37553e-05
1.23922e-05
1.65768e-05
1.29099e-05
1.55107e-05
0.00013574
0.000105525
2.11318e-05
8.67119e-06
1.03283e-05
1.0544e-05
9.26018e-06
1.11213e-05
9.48525e-06
2.47401e-05
0.000108089
8.52668e-05
1.81514e-05
7.63504e-06
8.8766e-06
9.14342e-06
8.19144e-06
8.37748e-06
7.52518e-06
1.79166e-05
8.83892e-05
7.02217e-05
1.78408e-05
6.88172e-06
8.12001e-06
8.01736e-06
7.29353e-06
7.47502e-06
6.37217e-06
1.59468e-05
7.38905e-05
5.88667e-05
1.82264e-05
6.1791e-06
7.24667e-06
6.81398e-06
6.37119e-06
6.86894e-06
5.92737e-06
1.41034e-05
6.28616e-05
4.99909e-05
1.77952e-05
5.74456e-06
6.42678e-06
5.93268e-06
5.56593e-06
6.20499e-06
5.34111e-06
1.22856e-05
5.41637e-05
4.29005e-05
1.70746e-05
5.46886e-06
5.78723e-06
5.27945e-06
5.00913e-06
5.56887e-06
4.86203e-06
1.09442e-05
4.74286e-05
3.70806e-05
1.62341e-05
5.35954e-06
5.29985e-06
4.78095e-06
4.57627e-06
5.08344e-06
4.49533e-06
9.77383e-06
4.18738e-05
3.2198e-05
1.55919e-05
5.33588e-06
4.91252e-06
4.42461e-06
4.2612e-06
4.6959e-06
4.20401e-06
9.05679e-06
3.76311e-05
2.79964e-05
1.50359e-05
5.32464e-06
4.63497e-06
4.14238e-06
3.99464e-06
4.39141e-06
3.99528e-06
8.35053e-06
3.38847e-05
2.4294e-05
1.48757e-05
5.46987e-06
4.43686e-06
3.96767e-06
3.81525e-06
4.14606e-06
3.81855e-06
7.82908e-06
3.11688e-05
2.09226e-05
1.49807e-05
5.78091e-06
4.35834e-06
3.83061e-06
3.68839e-06
3.98145e-06
3.76584e-06
7.2257e-06
2.84785e-05
1.77544e-05
1.52621e-05
6.55267e-06
4.46138e-06
3.93046e-06
3.68648e-06
3.88288e-06
3.73069e-06
6.82224e-06
2.67119e-05
1.46484e-05
1.53276e-05
7.43065e-06
4.64753e-06
3.9565e-06
3.75464e-06
3.93209e-06
3.80713e-06
6.34744e-06
2.47295e-05
1.15176e-05
1.6026e-05
8.9621e-06
5.2076e-06
4.22685e-06
3.90342e-06
4.03737e-06
4.04411e-06
6.14096e-06
2.35287e-05
8.30263e-06
1.69294e-05
1.10039e-05
6.00277e-06
4.62135e-06
4.25284e-06
4.37501e-06
4.38036e-06
6.14762e-06
2.21553e-05
5.23575e-06
1.86288e-05
1.38124e-05
7.69309e-06
5.53891e-06
4.79555e-06
4.79841e-06
5.00398e-06
6.2107e-06
2.09763e-05
3.65537e-06
2.19874e-05
1.87212e-05
1.06448e-05
7.08785e-06
5.86282e-06
5.78475e-06
6.00104e-06
8.47112e-06
1.92672e-05
3.82762e-06
2.45441e-05
2.55461e-05
1.74314e-05
1.0398e-05
7.6347e-06
7.2252e-06
7.58889e-06
1.23663e-05
1.90943e-05
0.311041
0.995141
0.977442
0.976823
0.976707
0.976707
0.976824
0.977438
0.995372
0.311516
0.0626434
0.0165009
0.00581735
0.00573597
0.00570532
0.00570509
0.00571515
0.00578798
0.0163637
0.0631647
0.0173278
0.000547108
0.0004338
0.000437562
0.00042653
0.000436363
0.000425675
0.000435382
0.000544231
0.0174547
0.00620756
0.000156877
0.000173985
0.000369453
0.000390564
0.000374374
0.000391626
0.000376363
0.000156959
0.00626453
0.00272242
4.99741e-05
3.16306e-05
8.88261e-05
0.00013115
0.000145604
0.000142443
9.32473e-05
5.24112e-05
0.00274477
0.00139458
1.92758e-05
3.34324e-06
1.21008e-05
1.43601e-05
1.18641e-05
9.16382e-06
2.66357e-05
1.92589e-05
0.00140291
0.00080341
1.14839e-05
6.80955e-07
1.3827e-06
1.91002e-06
2.72745e-06
2.80509e-06
3.30649e-06
1.08133e-05
0.000807412
0.000506346
1.25362e-05
1.39536e-07
6.74154e-07
7.72201e-07
4.9101e-07
2.72398e-07
4.45344e-07
7.16747e-06
0.00050929
0.00034178
1.38358e-05
6.80902e-08
1.54992e-07
1.59868e-07
2.98221e-07
4.99748e-08
9.85398e-08
9.04807e-06
0.000344323
0.000243345
9.05122e-06
8.03289e-08
4.92761e-08
5.32106e-08
1.20047e-07
9.58654e-08
5.25557e-08
7.8094e-06
0.000245745
0.000181171
1.4545e-05
8.89095e-08
2.18863e-08
7.17102e-08
6.67758e-08
1.03379e-06
5.42038e-08
7.92844e-06
0.000183071
0.000139684
1.03097e-05
3.73412e-07
1.52555e-07
2.27155e-07
4.94475e-08
6.16505e-07
2.05244e-07
5.1086e-06
0.000141447
0.000110765
1.05651e-05
3.94092e-07
1.24977e-07
1.71719e-07
3.97304e-08
5.52153e-07
2.19088e-07
8.2467e-06
0.000112689
8.99834e-05
9.89019e-06
4.20203e-07
1.62872e-07
1.4038e-07
6.24861e-08
5.14341e-07
1.69406e-07
6.48425e-06
9.2167e-05
7.45331e-05
8.56437e-06
4.09683e-07
1.68715e-07
1.29422e-07
4.73874e-08
3.66821e-07
1.51084e-07
5.49354e-06
7.68668e-05
6.27503e-05
7.86597e-06
4.00982e-07
1.65543e-07
1.26191e-07
9.34414e-08
2.21946e-07
1.45173e-07
4.66916e-06
6.53855e-05
5.35446e-05
7.52542e-06
3.65563e-07
1.60131e-07
1.20174e-07
7.76447e-08
1.58123e-07
1.4054e-07
4.52763e-06
5.62994e-05
4.61545e-05
7.03796e-06
3.53967e-07
1.57622e-07
1.14958e-07
7.76584e-08
1.43527e-07
1.36482e-07
4.01313e-06
4.93296e-05
4.00883e-05
6.89041e-06
3.76603e-07
1.4921e-07
1.14411e-07
8.04543e-08
1.31945e-07
1.32926e-07
3.80438e-06
4.34588e-05
3.49899e-05
6.92748e-06
4.547e-07
1.47176e-07
1.14229e-07
8.17046e-08
1.31092e-07
1.31743e-07
3.5967e-06
3.89941e-05
3.06062e-05
7.18505e-06
5.31825e-07
1.58503e-07
1.12503e-07
8.58678e-08
1.29972e-07
1.30523e-07
3.26491e-06
3.48827e-05
2.6743e-05
7.54212e-06
7.02726e-07
1.73272e-07
1.25411e-07
9.25986e-08
1.31122e-07
1.35626e-07
3.01065e-06
3.19413e-05
2.32526e-05
8.06189e-06
8.60459e-07
2.14704e-07
1.27292e-07
1.01498e-07
1.32073e-07
1.41157e-07
2.70552e-06
2.8823e-05
2.00398e-05
8.73515e-06
1.20018e-06
2.46397e-07
1.40953e-07
1.0911e-07
1.36104e-07
1.45245e-07
2.43938e-06
2.68438e-05
1.70057e-05
9.5565e-06
1.52862e-06
3.35028e-07
1.61326e-07
1.25175e-07
1.45186e-07
1.57546e-07
2.11188e-06
2.42108e-05
1.41498e-05
1.1068e-05
2.1904e-06
4.46529e-07
2.12629e-07
1.50541e-07
1.60275e-07
1.72447e-07
1.83445e-06
2.27086e-05
1.13908e-05
1.1809e-05
3.43093e-06
7.59956e-07
2.77157e-07
1.88588e-07
1.92938e-07
2.07396e-07
1.5442e-06
2.0178e-05
8.73731e-06
1.29224e-05
5.59939e-06
1.18898e-06
4.6552e-07
2.67225e-07
2.42421e-07
2.45276e-07
1.31561e-06
1.86311e-05
6.39276e-06
1.4523e-05
8.01026e-06
2.33003e-06
7.13512e-07
3.84285e-07
3.32367e-07
3.47956e-07
1.21813e-06
1.5251e-05
4.83437e-06
1.65649e-05
1.20884e-05
4.3319e-06
1.57265e-06
6.90415e-07
4.87106e-07
4.74301e-07
1.53808e-06
1.31676e-05
0.310742
0.994461
0.976823
0.976188
0.976063
0.976063
0.976186
0.976821
0.994682
0.311238
0.0622005
0.0161852
0.00571906
0.00568362
0.00568651
0.00569247
0.00571018
0.00573309
0.0160628
0.0627185
0.0170906
0.00053073
0.000430819
0.000419907
0.000487701
0.000501035
0.000493552
0.000447672
0.000528871
0.0172123
0.00609521
0.000149179
0.000388803
0.000201771
0.000243287
0.000214296
0.000228384
0.000338507
0.000148523
0.00614792
0.00266922
4.68309e-05
0.000124739
4.56142e-05
5.26049e-05
0.000115613
8.50871e-05
8.63595e-05
4.87345e-05
0.00268956
0.00136763
1.89827e-05
9.73278e-06
7.18373e-07
2.39283e-05
6.79036e-06
7.54309e-05
1.37791e-05
1.88277e-05
0.00137554
0.000788711
1.403e-05
2.24092e-06
3.85458e-09
4.80473e-06
1.28369e-07
4.2093e-06
2.34806e-06
1.13425e-05
0.00079269
0.000497629
1.5567e-05
3.31098e-07
1.7706e-10
5.9444e-07
2.04962e-08
6.34924e-08
4.17979e-07
1.00341e-05
0.000500785
0.000336114
1.42009e-05
1.5915e-07
1.05386e-10
1.96128e-08
1.32585e-09
1.38074e-09
2.01189e-07
1.05246e-05
0.000339221
0.000239795
1.43386e-05
6.2525e-08
1.70308e-10
4.28884e-09
2.69609e-10
8.01297e-10
1.09423e-07
1.12852e-05
0.000242885
0.000178316
9.1065e-06
3.9859e-08
2.83196e-10
5.22681e-10
1.54147e-10
9.71314e-12
7.96723e-08
7.2964e-06
0.000181672
0.000137433
1.44615e-05
2.02293e-07
1.24219e-09
1.61347e-10
7.53958e-11
2.09257e-09
4.16397e-08
1.08728e-05
0.000140919
0.00010904
1.14278e-05
1.79302e-07
1.9651e-09
5.38033e-10
3.28721e-11
2.6792e-09
2.25565e-08
8.12484e-06
0.000112676
8.86112e-05
1.00697e-05
2.50501e-07
3.34483e-09
5.8275e-10
2.04053e-10
2.33604e-09
1.61674e-08
6.34936e-06
9.24074e-05
7.34586e-05
9.09644e-06
2.57196e-07
4.60061e-09
6.47948e-10
9.21629e-11
2.0214e-09
1.22441e-08
5.55585e-06
7.72777e-05
6.18516e-05
8.75544e-06
2.97969e-07
6.28717e-09
7.28456e-10
5.62502e-10
1.80496e-09
1.04409e-08
5.14572e-06
6.5893e-05
5.27757e-05
8.30795e-06
3.19572e-07
8.49317e-09
8.39556e-10
4.2893e-10
1.48204e-09
5.9988e-09
4.65302e-06
5.68599e-05
4.54803e-05
7.89513e-06
3.42954e-07
9.38681e-09
9.3468e-10
4.25256e-10
1.55735e-09
1.72379e-08
4.33665e-06
4.99464e-05
3.95096e-05
7.64683e-06
3.87783e-07
1.27657e-08
1.18039e-09
4.75656e-10
1.05592e-09
1.92747e-08
3.95332e-06
4.40809e-05
3.44759e-05
7.75033e-06
4.70314e-07
1.8818e-08
1.29825e-09
5.70049e-10
1.25629e-09
2.89573e-08
3.6678e-06
3.96481e-05
3.0141e-05
7.66179e-06
5.47424e-07
2.62815e-08
2.42416e-09
6.49952e-10
1.40924e-09
3.31289e-08
3.32765e-06
3.55235e-05
2.6335e-05
7.75617e-06
6.94271e-07
4.11507e-08
2.99654e-09
9.41882e-10
1.51627e-09
2.66005e-08
3.02876e-06
3.25592e-05
2.29147e-05
8.07924e-06
8.43874e-07
6.24216e-08
6.87639e-09
9.72737e-10
1.69294e-09
3.04118e-08
2.64133e-06
2.93883e-05
1.97796e-05
8.65487e-06
1.12345e-06
9.7231e-08
8.81441e-09
2.33536e-09
1.73404e-09
3.08966e-08
2.32827e-06
2.72988e-05
1.68407e-05
9.29025e-06
1.45987e-06
1.62607e-07
2.18769e-08
2.70246e-09
2.71866e-09
2.70416e-08
1.93071e-06
2.45738e-05
1.4092e-05
1.06316e-05
1.91964e-06
2.4962e-07
2.98078e-08
7.00268e-09
2.17067e-09
2.31807e-08
1.64727e-06
2.29225e-05
1.14854e-05
1.12384e-05
3.15004e-06
4.5903e-07
7.60491e-08
9.96544e-09
6.52519e-09
1.79562e-08
1.26524e-06
2.03069e-05
9.00234e-06
1.18625e-05
4.7316e-06
8.02735e-07
1.25312e-07
2.92515e-08
7.65244e-09
1.71693e-08
1.05079e-06
1.80803e-05
6.737e-06
1.28109e-05
6.5441e-06
1.49662e-06
2.97544e-07
5.1437e-08
2.03574e-08
2.02421e-08
7.25908e-07
1.51987e-05
4.73521e-06
1.37528e-05
8.73641e-06
2.47589e-06
5.95905e-07
1.52568e-07
4.04339e-08
2.34168e-08
7.4904e-07
1.11595e-05
0.310669
0.994357
0.976706
0.976062
0.975942
0.975947
0.976065
0.976706
0.994579
0.311165
0.0620657
0.0162043
0.00570207
0.00568932
0.00569519
0.00561768
0.00571372
0.00572849
0.0160745
0.0625824
0.0170041
0.000529657
0.000430234
0.000496504
0.000498612
0.000416957
0.000496105
0.000443956
0.000527533
0.0171242
0.00604785
0.000147467
0.00038959
0.000224756
0.000211935
2.46378e-07
0.000213911
0.000338785
0.000146756
0.00609881
0.00264289
4.49539e-05
0.000143353
9.44962e-05
0.000118492
5.15212e-09
0.000110771
0.000143671
4.66719e-05
0.00266233
0.0013519
1.94796e-05
1.36467e-05
5.50983e-05
8.46065e-09
4.36421e-12
1.47042e-05
9.4392e-06
1.87452e-05
0.00135962
0.000779061
1.54332e-05
2.35408e-06
2.19058e-06
2.63006e-12
2.1599e-12
6.64719e-07
2.01709e-06
1.19063e-05
0.000782769
0.000490764
1.59117e-05
3.47219e-07
3.61517e-08
5.98477e-13
1.19658e-12
1.21227e-08
2.80196e-07
1.39365e-05
0.000494241
0.000331731
1.50714e-05
2.27219e-07
2.28136e-09
1.28626e-13
5.79897e-14
5.21003e-10
1.1722e-07
1.21403e-05
0.000334673
0.000236227
1.40963e-05
9.7441e-08
1.86654e-10
9.74813e-14
2.84054e-14
1.55619e-11
4.93152e-08
1.23251e-05
0.000239624
0.000175981
8.12727e-06
6.36218e-08
1.24912e-10
1.6684e-12
1.95526e-14
1.055e-10
2.67361e-08
7.39904e-06
0.000179313
0.000135695
1.583e-05
1.58362e-07
6.45519e-11
1.58494e-12
7.92271e-14
9.82522e-12
2.13372e-08
1.1496e-05
0.000139257
0.0001077
1.1654e-05
1.45716e-07
1.7529e-09
9.1861e-12
3.09057e-14
1.23496e-11
1.71582e-08
8.51593e-06
0.00011131
8.75308e-05
9.47347e-06
2.63774e-07
2.38484e-09
1.10303e-11
4.28993e-13
3.179e-11
1.17265e-08
6.39673e-06
9.12311e-05
7.25559e-05
9.11706e-06
2.33309e-07
2.36934e-09
7.83646e-12
1.08035e-12
2.37249e-11
1.81851e-08
6.1047e-06
7.6221e-05
6.1163e-05
8.55869e-06
2.55066e-07
3.81164e-09
2.67858e-11
9.005e-13
4.33755e-11
3.1954e-08
5.43897e-06
6.49438e-05
5.21907e-05
7.87447e-06
2.7774e-07
4.59074e-09
5.49411e-11
2.91004e-12
3.1903e-11
2.8921e-08
4.69118e-06
5.60106e-05
4.50462e-05
7.57667e-06
3.40789e-07
7.4541e-09
1.06013e-10
4.8865e-11
3.7268e-11
3.39087e-08
4.20573e-06
4.9176e-05
3.91601e-05
7.31433e-06
3.91653e-07
1.17426e-08
2.27787e-10
1.04036e-11
7.80468e-11
3.03277e-08
3.78792e-06
4.33982e-05
3.42195e-05
7.55428e-06
4.62793e-07
1.7684e-08
5.91088e-10
3.08821e-11
1.05512e-10
3.22956e-08
3.44447e-06
3.90273e-05
2.9949e-05
7.39527e-06
5.30445e-07
2.57125e-08
7.20549e-10
1.45934e-10
1.195e-10
3.21366e-08
3.05673e-06
3.49358e-05
2.62061e-05
7.80203e-06
6.67968e-07
3.88688e-08
2.69601e-09
1.84685e-10
1.18239e-10
3.00555e-08
2.74342e-06
3.2008e-05
2.28238e-05
7.86352e-06
8.06388e-07
5.89799e-08
3.58468e-09
2.76482e-10
1.26473e-10
2.66716e-08
2.36873e-06
2.88358e-05
1.97273e-05
8.3723e-06
1.04583e-06
8.93374e-08
1.01893e-08
4.07726e-10
2.0598e-10
2.30407e-08
2.08274e-06
2.67784e-05
1.67929e-05
8.94406e-06
1.3674e-06
1.47298e-07
1.35262e-08
1.94154e-09
2.67852e-10
1.90902e-08
1.72116e-06
2.40402e-05
1.40344e-05
1.02401e-05
1.79646e-06
2.28673e-07
3.4899e-08
2.74981e-09
5.78191e-10
1.50025e-08
1.47112e-06
2.2434e-05
1.13946e-05
1.09158e-05
2.84372e-06
3.96056e-07
5.03413e-08
1.0144e-08
7.12238e-10
1.19575e-08
1.12393e-06
1.96415e-05
8.8498e-06
1.16042e-05
4.44679e-06
7.25175e-07
1.29575e-07
1.59798e-08
2.99969e-09
7.63983e-09
9.40277e-07
1.79901e-05
6.49108e-06
1.25103e-05
6.28891e-06
1.36695e-06
2.4144e-07
5.36468e-08
5.12905e-09
9.85615e-09
6.36823e-07
1.42031e-05
4.34345e-06
1.35217e-05
8.42384e-06
2.35593e-06
5.54521e-07
1.25008e-07
3.27801e-08
1.51527e-08
6.70174e-07
1.21653e-05
0.31067
0.994356
0.976707
0.976072
0.97595
0.975955
0.976072
0.976707
0.994579
0.311164
0.0620654
0.0162118
0.00572614
0.00563977
0.00558162
0.00576694
0.00569232
0.00570833
0.0160815
0.0625816
0.0170038
0.000529553
0.000436235
0.000361056
0.000308091
0.000590738
0.00049263
0.000425181
0.000527315
0.0171234
0.00604744
0.000146563
0.000367543
9.6407e-06
8.48911e-07
1.08825e-06
0.000224421
0.00038691
0.000146759
0.00609792
0.00264269
4.43975e-05
9.5993e-05
1.2952e-06
2.42482e-10
3.48687e-10
8.48674e-05
0.000168831
4.61718e-05
0.00266178
0.00135184
1.95287e-05
6.6924e-06
1.01545e-07
4.24656e-13
2.66357e-11
6.9527e-05
1.64058e-05
1.90167e-05
0.00135936
0.000779059
1.62001e-05
8.76993e-07
2.91693e-10
1.95482e-14
7.60178e-10
4.37711e-05
5.48573e-06
1.25408e-05
0.00078275
0.000490792
1.64635e-05
3.53456e-07
1.96903e-10
4.47361e-13
8.06733e-11
1.83325e-06
9.41652e-07
1.22986e-05
0.000494083
0.0003317
1.68955e-05
8.1251e-08
5.08842e-11
2.46184e-13
3.11559e-11
1.41844e-06
5.95943e-07
1.23201e-05
0.000334676
0.000236272
1.10269e-05
9.34351e-08
4.44405e-10
1.09454e-12
4.85468e-11
5.39716e-07
3.64157e-07
1.18084e-05
0.00023942
0.000175917
1.64427e-05
2.15003e-08
1.31191e-10
6.88929e-12
3.08041e-12
2.6768e-07
1.98021e-07
7.91192e-06
0.000179117
0.000135682
1.29763e-05
4.02705e-07
3.88889e-09
2.77447e-12
6.15031e-11
9.37458e-08
7.26323e-08
1.05132e-05
0.000139109
0.000107732
1.03071e-05
2.70128e-07
2.79795e-09
4.51369e-11
3.60564e-11
8.32627e-08
6.32424e-08
8.00304e-06
0.000111225
8.75012e-05
9.20949e-06
2.52964e-07
4.46286e-09
4.72507e-11
3.46124e-11
5.66845e-08
4.58105e-08
7.47432e-06
9.1181e-05
7.25165e-05
8.31919e-06
2.34067e-07
5.02631e-09
6.33054e-11
6.37401e-13
4.56188e-08
3.61584e-08
6.69988e-06
7.62037e-05
6.10874e-05
8.07774e-06
2.49504e-07
5.66646e-09
2.83376e-11
7.06472e-12
2.17295e-08
2.8881e-08
5.87101e-06
6.49131e-05
5.2155e-05
7.79119e-06
2.64795e-07
5.98476e-09
1.66635e-10
2.00163e-11
1.78572e-08
1.71275e-08
5.05428e-06
5.60149e-05
4.50009e-05
7.60742e-06
3.22435e-07
7.64128e-09
1.00509e-10
4.52295e-12
1.38799e-08
1.20504e-08
4.54652e-06
4.91865e-05
3.91432e-05
7.54192e-06
3.88188e-07
1.06062e-08
4.57676e-10
7.36493e-12
6.62542e-09
1.8329e-08
4.1522e-06
4.34572e-05
3.42188e-05
7.57538e-06
4.82339e-07
1.84043e-08
6.68297e-10
2.35686e-11
5.1246e-09
1.90817e-08
3.80701e-06
3.90846e-05
2.99887e-05
7.76341e-06
5.7155e-07
2.61201e-08
1.27418e-09
4.56342e-11
2.41241e-09
3.06229e-08
3.38883e-06
3.50251e-05
2.62671e-05
7.98906e-06
7.3501e-07
4.34086e-08
1.5937e-09
1.64601e-10
1.88548e-09
2.27965e-08
3.00776e-06
3.20859e-05
2.29058e-05
8.3511e-06
8.98407e-07
6.43152e-08
6.40119e-09
3.50424e-10
1.40187e-09
2.19423e-08
2.56729e-06
2.88929e-05
1.98192e-05
8.93249e-06
1.18534e-06
1.04622e-07
7.6288e-09
5.89352e-10
1.0809e-09
2.85903e-08
2.21428e-06
2.68431e-05
1.68907e-05
9.44957e-06
1.48266e-06
1.62704e-07
2.32445e-08
2.0365e-09
8.62517e-10
2.8649e-08
1.80222e-06
2.40379e-05
1.41215e-05
1.06236e-05
2.04418e-06
2.73071e-07
3.06161e-08
1.80424e-09
4.47355e-10
2.36478e-08
1.51138e-06
2.24396e-05
1.14711e-05
1.11602e-05
3.06286e-06
4.31107e-07
7.66641e-08
1.38675e-08
1.6203e-09
1.82808e-08
1.14038e-06
1.95891e-05
8.91499e-06
1.17337e-05
4.55305e-06
8.14931e-07
1.25547e-07
1.88992e-08
1.50549e-09
1.22293e-08
9.37299e-07
1.80004e-05
6.54726e-06
1.25507e-05
6.3578e-06
1.35043e-06
2.84157e-07
6.49728e-08
1.40344e-08
1.1347e-08
6.33457e-07
1.39286e-05
4.39664e-06
1.35143e-05
8.48112e-06
2.40906e-06
5.55985e-07
1.34536e-07
2.63881e-08
1.62357e-08
6.71892e-07
1.2222e-05
0.310746
0.99446
0.976822
0.976193
0.97607
0.976073
0.976185
0.976824
0.994682
0.311236
0.0622006
0.0162034
0.00572387
0.00570166
0.00577983
0.00570794
0.00570323
0.00573195
0.0160764
0.0627165
0.0170897
0.000531097
0.000439411
0.000493034
0.000591471
0.000497956
0.000489025
0.00043109
0.000528423
0.0172096
0.00609307
0.000146059
0.000367739
0.000231679
1.23171e-06
0.000210793
0.000234096
0.000365396
0.000147233
0.00614373
0.00266794
4.42098e-05
0.000111055
7.78783e-05
1.1071e-09
0.000116232
6.82388e-05
0.00015535
4.64641e-05
0.00268671
0.00136718
1.95293e-05
2.44059e-05
2.7037e-05
1.43127e-10
3.37874e-09
2.86694e-06
1.2379e-05
1.86976e-05
0.00137434
0.000788626
1.59397e-05
2.33143e-06
8.10771e-07
2.10704e-11
2.01269e-10
1.32767e-06
4.57896e-06
1.19623e-05
0.000792358
0.000497681
1.74962e-05
9.71383e-07
5.69375e-08
1.80621e-09
3.18758e-10
8.30621e-07
1.41922e-06
1.37609e-05
0.000500769
0.000336113
1.79573e-05
1.97534e-07
5.01867e-09
8.93119e-10
1.00957e-09
4.21407e-07
6.07381e-07
1.285e-05
0.000339287
0.000239649
1.12501e-05
5.81349e-08
4.05893e-10
6.32738e-10
3.94854e-10
2.09617e-07
2.70799e-07
1.23397e-05
0.000242904
0.000178464
1.8353e-05
9.53509e-08
2.89192e-10
2.49104e-10
3.70371e-10
1.40243e-07
1.26306e-07
7.52052e-06
0.000181715
0.000137668
1.33628e-05
2.83499e-07
1.32462e-09
3.80263e-10
4.8591e-10
7.50162e-08
5.026e-08
1.15304e-05
0.000140974
0.000109268
1.06245e-05
3.07529e-07
2.06367e-09
1.88654e-10
1.1781e-10
2.84514e-08
4.1956e-08
8.45636e-06
0.000112737
8.87302e-05
9.52504e-06
2.50792e-07
4.10883e-09
1.06007e-10
1.35228e-10
1.7682e-08
3.57779e-08
6.61998e-06
9.24619e-05
7.34895e-05
8.63494e-06
2.53213e-07
4.56284e-09
1.53023e-10
7.15184e-11
1.2022e-08
2.64021e-08
5.89569e-06
7.73119e-05
6.18596e-05
8.31901e-06
2.58288e-07
4.86176e-09
2.44953e-10
8.29688e-11
6.00935e-09
1.62187e-08
5.41034e-06
6.58913e-05
5.27567e-05
7.9358e-06
2.77478e-07
6.20471e-09
1.00902e-09
7.46464e-11
3.77509e-09
1.06457e-08
4.84884e-06
5.68589e-05
4.54644e-05
7.74578e-06
3.37852e-07
9.40159e-09
2.33491e-10
1.23406e-10
1.92066e-09
1.98389e-08
4.44616e-06
4.99358e-05
3.94892e-05
7.60159e-06
3.9018e-07
1.30188e-08
6.95317e-10
2.48052e-10
1.11821e-09
2.17053e-08
4.05415e-06
4.40854e-05
3.44705e-05
7.6184e-06
4.8853e-07
2.23422e-08
1.59624e-09
1.82125e-10
6.08086e-10
2.73205e-08
3.68193e-06
3.96283e-05
3.01657e-05
7.75062e-06
5.73972e-07
2.94143e-08
2.52623e-09
4.15392e-10
3.13347e-10
3.35055e-08
3.27387e-06
3.54926e-05
2.6384e-05
8.00688e-06
7.41157e-07
4.62512e-08
2.99075e-09
1.149e-09
6.75644e-10
2.55181e-08
2.90741e-06
3.24881e-05
2.29807e-05
8.40327e-06
9.04959e-07
6.6684e-08
6.05155e-09
1.25952e-09
1.15133e-09
2.93545e-08
2.5149e-06
2.93044e-05
1.9857e-05
8.98271e-06
1.19776e-06
1.08823e-07
9.65208e-09
2.33004e-09
2.05611e-09
2.86188e-08
2.18561e-06
2.71654e-05
1.6918e-05
9.53372e-06
1.52635e-06
1.67473e-07
2.83144e-08
3.82738e-09
2.52706e-09
2.51438e-08
1.81339e-06
2.44509e-05
1.41653e-05
1.07529e-05
1.97458e-06
2.75724e-07
3.55981e-08
9.39105e-09
4.70502e-09
2.15982e-08
1.53465e-06
2.27572e-05
1.15534e-05
1.12648e-05
3.17811e-06
4.46484e-07
8.8491e-08
1.29792e-08
4.62886e-09
1.77109e-08
1.17592e-06
1.99799e-05
9.07529e-06
1.18359e-05
4.66743e-06
8.51522e-07
1.38435e-07
3.33024e-08
1.43057e-08
1.73702e-08
9.68119e-07
1.8274e-05
6.80826e-06
1.26849e-05
6.43397e-06
1.40815e-06
3.14643e-07
5.62262e-08
1.7025e-08
1.86958e-08
6.74562e-07
1.47711e-05
4.83088e-06
1.36464e-05
8.65926e-06
2.47639e-06
5.87641e-07
1.56164e-07
5.02327e-08
3.40159e-08
7.25204e-07
1.19977e-05
0.311039
0.995137
0.977437
0.976823
0.976705
0.976707
0.976823
0.977442
0.995356
0.31152
0.0626525
0.0165725
0.00581484
0.00571983
0.00571571
0.00570932
0.00572072
0.0058252
0.0164362
0.0631687
0.0173254
0.000547272
0.000466043
0.000425589
0.000436662
0.000423865
0.000426372
0.000423421
0.000544059
0.0174496
0.00619786
0.000149075
0.00030549
0.000385517
0.000363577
0.000382792
0.000379311
0.000168986
0.000150655
0.00625189
0.00271546
4.4287e-05
6.90876e-05
0.000182509
0.000130472
0.000129545
0.000134289
3.91456e-05
4.60545e-05
0.00273487
0.00139105
1.96593e-05
2.1684e-05
2.00004e-05
2.45295e-05
2.38724e-05
2.16081e-05
2.22397e-06
1.8801e-05
0.00139802
0.000802242
1.56504e-05
2.7781e-06
5.79979e-06
6.06952e-06
6.52746e-06
7.79052e-06
6.0678e-07
1.21909e-05
0.000805403
0.000505581
1.67296e-05
7.9946e-07
1.80074e-06
1.69769e-06
1.7288e-06
2.09692e-06
1.38314e-07
1.40243e-05
0.000508715
0.000341418
1.33281e-05
1.78631e-07
6.66931e-07
6.54428e-07
7.3624e-07
8.72667e-07
6.94786e-08
1.22603e-05
0.000344025
0.000243465
1.94143e-05
8.80298e-08
5.31201e-07
3.33775e-07
2.97984e-07
4.01524e-07
5.44706e-08
1.22936e-05
0.000245765
0.000181187
1.38422e-05
7.4996e-08
3.43901e-07
2.14102e-07
2.06861e-07
1.5852e-07
8.1827e-08
7.85608e-06
0.000183486
0.000139549
1.29568e-05
1.82822e-07
1.70261e-07
1.18778e-07
1.27903e-07
1.24682e-07
1.49399e-07
1.09904e-05
0.000141991
0.000110636
1.15321e-05
2.15824e-07
1.23942e-07
4.78891e-08
8.64326e-08
7.72022e-08
9.3481e-08
9.99053e-06
0.000113134
8.98699e-05
1.04562e-05
2.15722e-07
7.05373e-08
4.30549e-08
6.10704e-08
4.16261e-08
1.66991e-07
7.71948e-06
9.2382e-05
7.4496e-05
9.59328e-06
2.61023e-07
3.78337e-08
3.71932e-08
4.58766e-08
3.4792e-08
1.51208e-07
6.888e-06
7.69624e-05
6.27186e-05
8.84603e-06
2.78954e-07
3.28291e-08
2.97276e-08
2.89309e-08
2.87809e-08
1.50713e-07
6.15092e-06
6.53895e-05
5.3522e-05
8.37971e-06
3.14223e-07
1.66643e-08
2.5874e-08
2.52136e-08
2.76245e-08
1.17759e-07
5.45036e-06
5.62954e-05
4.61567e-05
8.04817e-06
3.71932e-07
6.44395e-08
1.98855e-08
1.81004e-08
5.68787e-08
1.18745e-07
4.83636e-06
4.93262e-05
4.0109e-05
7.91395e-06
4.32351e-07
5.934e-08
6.45635e-08
2.42473e-08
7.45137e-08
1.20725e-07
4.31391e-06
4.34741e-05
3.50233e-05
7.76001e-06
5.29673e-07
1.3209e-07
6.52275e-08
1.99288e-08
7.77224e-08
1.20855e-07
3.88683e-06
3.90217e-05
3.06576e-05
7.87541e-06
6.24159e-07
1.3196e-07
1.2221e-07
4.79138e-08
1.00827e-07
1.2816e-07
3.46588e-06
3.4917e-05
2.68246e-05
8.28181e-06
8.19236e-07
1.59923e-07
1.2635e-07
7.25775e-08
1.20681e-07
1.44268e-07
3.10994e-06
3.19745e-05
2.33674e-05
8.8483e-06
1.01152e-06
2.03006e-07
1.54056e-07
1.23565e-07
1.44138e-07
1.48364e-07
2.75173e-06
2.88339e-05
2.01469e-05
9.42075e-06
1.35294e-06
2.73611e-07
1.77841e-07
1.37293e-07
1.61283e-07
1.62585e-07
2.43018e-06
2.6843e-05
1.71291e-05
1.02122e-05
1.70764e-06
3.39444e-07
2.2055e-07
1.60975e-07
1.81269e-07
1.74017e-07
2.12474e-06
2.41939e-05
1.4241e-05
1.14326e-05
2.35649e-06
4.90153e-07
2.49303e-07
1.95108e-07
2.0143e-07
2.07105e-07
1.81281e-06
2.27045e-05
1.15021e-05
1.21841e-05
3.71484e-06
7.50084e-07
3.59492e-07
2.51549e-07
2.47633e-07
2.29545e-07
1.58173e-06
2.01628e-05
8.80931e-06
1.31332e-05
5.78891e-06
1.29673e-06
4.71811e-07
3.19368e-07
2.99844e-07
2.85196e-07
1.29066e-06
1.86132e-05
6.47502e-06
1.47913e-05
8.30707e-06
2.35834e-06
8.45191e-07
4.66629e-07
4.09489e-07
4.02079e-07
1.29788e-06
1.51549e-05
4.93559e-06
1.67396e-05
1.243e-05
4.47452e-06
1.68957e-06
7.70295e-07
5.84832e-07
5.63102e-07
1.60684e-06
1.32337e-05
0.312162
0.997023
0.995373
0.994682
0.994579
0.99458
0.994684
0.995358
0.997233
0.312613
0.063621
0.0440671
0.0163774
0.0160718
0.0160884
0.0160983
0.0160924
0.0164515
0.0437458
0.0641198
0.0176982
0.00156774
0.000544571
0.000529009
0.000527718
0.00052808
0.000529061
0.000544777
0.00154276
0.0178488
0.00634153
0.000278937
0.000157501
0.000149001
0.000147655
0.000146233
0.000147276
0.000150302
0.000278213
0.00641626
0.00276567
0.000116014
5.15716e-05
4.7977e-05
4.68245e-05
4.58557e-05
4.61298e-05
4.58359e-05
0.000117153
0.00279643
0.00140427
5.59437e-05
1.94035e-05
1.94094e-05
1.89532e-05
1.91163e-05
1.90656e-05
1.9175e-05
5.38464e-05
0.00141444
0.000801569
3.04941e-05
1.13295e-05
1.23807e-05
1.27919e-05
1.28146e-05
1.23466e-05
1.26439e-05
3.02519e-05
0.000804953
0.000500163
2.18886e-05
7.98207e-06
9.9423e-06
1.44443e-05
1.56689e-05
1.56563e-05
1.48979e-05
2.02714e-05
0.00050118
0.000334407
1.51737e-05
1.05075e-05
1.19106e-05
1.41601e-05
1.52924e-05
1.35645e-05
1.36578e-05
1.55149e-05
0.000335665
0.000236332
1.8013e-05
9.51439e-06
1.24905e-05
1.29518e-05
1.07355e-05
1.39803e-05
1.24144e-05