/*--------------------------------*- C++ -*----------------------------------*\
| =========                 |                                                 |
| \\      /  F ield         | OpenFOAM: The Open Source CFD Toolbox           |
|  \\    /   O peration     | Version:  4.1                                   |
|   \\  /    A nd           | Web:      www.OpenFOAM.org                      |
|    \\/     M anipulation  |                                                 |
\*---------------------------------------------------------------------------*/
FoamFile
{
    version     2.0;
    format      ascii;
    class       volScalarField;
    location    "300";
    object      k;
}
// * * * * * * * * * * * * * * * * * * * * * * * * * * * * * * * * * * * * * //

dimensions      [0 2 -2 0 0 0 0];

internalField   nonuniform List<scalar> 
12000
(
0.116481
0.113524
0.113226
0.113151
0.113132
0.113132
0.11315
0.113225
0.113571
0.116536
0.0404932
0.0398403
0.0395327
0.0393524
0.039297
0.0392972
0.0393527
0.0395276
0.0398207
0.0404585
0.0169436
0.0169803
0.0167815
0.0166369
0.016583
0.0165834
0.0166384
0.0167849
0.0169786
0.0169427
0.0083973
0.00856644
0.00845914
0.00836644
0.00832601
0.00832661
0.00836879
0.00846659
0.00856703
0.00840145
0.00477322
0.00493259
0.00488156
0.00482325
0.00479404
0.0047946
0.0048256
0.00488874
0.00493449
0.00478046
0.00301338
0.00313848
0.0031243
0.00308679
0.0030648
0.00306556
0.00308852
0.00312845
0.00314079
0.00302218
0.00206168
0.00216246
0.00216233
0.00213744
0.00212075
0.00212118
0.00213912
0.00216544
0.00216425
0.00206978
0.00149936
0.00157991
0.0015893
0.00157189
0.00155838
0.00155905
0.00157284
0.00159149
0.00158246
0.00150736
0.00114305
0.00120918
0.00122294
0.0012105
0.00120045
0.00120064
0.00121262
0.00122582
0.00121068
0.00115122
0.000904231
0.000960005
0.000976942
0.000966785
0.000958917
0.000959068
0.000968012
0.000978162
0.000960833
0.00091298
0.00073649
0.000783124
0.000801356
0.000795552
0.000786643
0.000789338
0.000799164
0.000805124
0.000785894
0.000746206
0.000614433
0.000655352
0.000674034
0.000668298
0.00066258
0.000663463
0.000663873
0.000675878
0.000660062
0.000625279
0.000522735
0.000560302
0.000578737
0.000574316
0.000570037
0.000570899
0.000572585
0.000580931
0.000561596
0.000534604
0.00045191
0.000487476
0.000505375
0.000502057
0.000498877
0.000499766
0.000502656
0.000508702
0.000489901
0.000465359
0.000395824
0.000430094
0.000447252
0.000444948
0.0004425
0.000443495
0.000446922
0.000451816
0.000434521
0.000411377
0.000350399
0.000383805
0.000400413
0.000399008
0.00039722
0.000398397
0.000401883
0.000406106
0.000390118
0.000368453
0.000312812
0.000345801
0.000362156
0.00036137
0.000360073
0.00036137
0.000364874
0.000368936
0.000353986
0.000333888
0.000281014
0.000314098
0.000330372
0.000330186
0.000329497
0.000331027
0.000334361
0.000338234
0.000324262
0.000305614
0.000253456
0.000287003
0.000303387
0.000303826
0.000303582
0.00030529
0.000308765
0.00031298
0.000300067
0.000282561
0.000228907
0.000263338
0.000280219
0.000281504
0.000281967
0.000284046
0.000287407
0.000291621
0.000279789
0.00026337
0.000206341
0.000242053
0.000259778
0.000262041
0.000262934
0.00026532
0.000269103
0.000273992
0.000263641
0.00024796
0.00018478
0.00022228
0.000241638
0.000245231
0.000247009
0.00025005
0.000253723
0.000258718
0.000249784
0.00023498
0.000163283
0.000203017
0.000224773
0.000229841
0.0002321
0.000235671
0.000240261
0.000246373
0.000239476
0.000225252
0.00014057
0.000183164
0.000208922
0.000216324
0.000219898
0.000224285
0.000228789
0.000235301
0.000230268
0.000217037
0.000115272
0.000161157
0.000192369
0.000202675
0.000207069
0.000212398
0.000218633
0.000226925
0.000224292
0.000212342
8.40791e-05
0.000135575
0.000174659
0.000190021
0.000196915
0.000203174
0.000209219
0.000218734
0.000218496
0.000208647
4.65596e-05
0.000103257
0.000152459
0.000173804
0.000183515
0.000192075
0.000200915
0.000213362
0.000215602
0.000208951
3.067e-05
6.79836e-05
0.000123865
0.000156454
0.000171958
0.000182001
0.000190708
0.000205813
0.000213604
0.000210408
4.03617e-05
5.78397e-05
8.15818e-05
0.000115085
0.000149546
0.000168956
0.000180722
0.000200029
0.000212534
0.000216281
6.43932e-05
8.30779e-05
8.61107e-05
9.29642e-05
0.000102173
0.000131284
0.000160331
0.000185398
0.000209725
0.000225914
0.113523
0.0170732
0.0149748
0.0149663
0.0149678
0.0149678
0.0149663
0.0149748
0.0170631
0.113471
0.0398385
0.00121777
0.000749407
0.000742973
0.000742479
0.000742417
0.000742791
0.000748695
0.00121748
0.0396326
0.016978
0.000890708
0.00031064
0.000307222
0.000309146
0.000309396
0.00030782
0.000310451
0.000895804
0.0169106
0.00856378
0.000805657
0.000152522
0.000154946
0.000158422
0.000159095
0.000157251
0.000163659
0.000782383
0.00854501
0.00492984
0.000643886
0.00011821
0.000127111
0.000138603
0.000141402
0.000138063
0.000149626
0.000636368
0.00493842
0.00313558
0.000392917
0.000122724
0.000135499
0.000142798
0.000151832
0.000147386
0.000140863
0.000380231
0.00315548
0.00215951
0.000410217
9.86109e-05
0.000109535
0.000120725
0.000123962
0.000123348
0.000115544
0.000397064
0.00217488
0.00157676
0.000359005
8.37279e-05
9.0355e-05
8.5716e-05
9.76021e-05
8.92437e-05
9.00851e-05
0.000351776
0.00159074
0.00120585
0.000318077
6.06983e-05
7.47613e-05
9.64972e-05
8.45901e-05
9.93443e-05
7.75638e-05
0.000250837
0.00121693
0.000956431
0.000269101
7.85795e-05
8.54987e-05
8.68888e-05
8.98146e-05
9.1591e-05
6.14669e-05
0.000166783
0.000965794
0.000779198
0.000198674
6.96845e-05
8.44922e-05
8.69491e-05
8.79278e-05
8.1268e-05
7.16813e-05
0.000170931
0.000788973
0.000651039
0.00017039
7.21388e-05
7.32509e-05
8.16184e-05
8.50368e-05
8.19845e-05
6.80984e-05
0.000163529
0.00066285
0.000555515
0.000157115
6.32669e-05
7.32898e-05
7.87194e-05
7.61083e-05
8.42892e-05
6.79829e-05
0.000159595
0.000564368
0.000482128
0.000162062
6.32204e-05
6.94641e-05
7.1015e-05
6.42431e-05
7.74512e-05
6.21694e-05
0.000145574
0.000493157
0.000424085
0.000159181
6.144e-05
6.29825e-05
6.1002e-05
5.69135e-05
6.70177e-05
5.58571e-05
0.000130249
0.000438138
0.000377034
0.000156093
5.51619e-05
5.80319e-05
5.40807e-05
4.94563e-05
5.83792e-05
4.98563e-05
0.000113491
0.000394058
0.000338138
0.000151966
5.63147e-05
5.34122e-05
4.93426e-05
4.60855e-05
5.19904e-05
4.52703e-05
9.897e-05
0.000357255
0.000305439
0.000151589
5.44183e-05
5.05047e-05
4.58273e-05
4.38894e-05
4.71568e-05
4.26558e-05
9.12886e-05
0.00032724
0.000277244
0.000150505
5.39375e-05
4.91062e-05
4.38616e-05
4.26128e-05
4.50303e-05
4.12283e-05
8.33137e-05
0.000301166
0.000252432
0.000151012
5.48116e-05
4.7539e-05
4.42796e-05
4.1187e-05
4.28603e-05
3.99201e-05
7.86651e-05
0.000280316
0.00023002
0.000152507
5.85268e-05
4.84079e-05
4.44628e-05
4.17541e-05
4.30955e-05
4.02043e-05
7.60145e-05
0.000261214
0.000209296
0.000155854
6.27456e-05
4.84493e-05
4.48698e-05
4.18499e-05
4.28255e-05
4.01348e-05
7.29237e-05
0.00024677
0.000189492
0.000160428
6.92824e-05
4.96243e-05
4.49643e-05
4.16964e-05
4.28233e-05
4.09939e-05
7.33106e-05
0.000232243
0.00016983
0.000163647
8.15189e-05
5.2567e-05
4.63681e-05
4.24783e-05
4.34959e-05
4.21885e-05
6.78523e-05
0.000222174
0.000149361
0.00016712
9.19797e-05
5.66099e-05
4.77045e-05
4.45852e-05
4.5627e-05
4.50839e-05
6.6542e-05
0.000210573
0.000127122
0.000174145
0.00011242
6.48878e-05
5.1664e-05
4.73235e-05
4.79024e-05
4.77457e-05
6.79148e-05
0.000203395
0.000102061
0.000184894
0.000130407
7.5567e-05
5.77874e-05
5.21861e-05
5.26707e-05
5.3121e-05
7.04214e-05
0.000193793
7.49154e-05
0.000202586
0.000165151
9.76248e-05
6.94413e-05
5.92217e-05
5.79362e-05
5.9006e-05
7.29617e-05
0.000190462
5.90143e-05
0.000227534
0.000205422
0.000129624
8.811e-05
7.11588e-05
6.86068e-05
7.00702e-05
8.95982e-05
0.000175296
6.09383e-05
0.000253203
0.000259475
0.000198029
0.000126399
9.19883e-05
8.31721e-05
8.50524e-05
0.0001168
0.000182565
0.113225
0.0149753
0.013063
0.013059
0.0130593
0.0130593
0.013059
0.0130631
0.0149701
0.113101
0.039531
0.000749666
0.000286926
0.000283861
0.000283531
0.000283687
0.000284142
0.000287731
0.000750754
0.0392986
0.0167792
0.000311946
3.30865e-07
3.89968e-07
4.4842e-07
4.81524e-07
4.58208e-07
4.94081e-07
0.000310841
0.016713
0.00845629
0.000154474
2.18635e-09
3.8553e-09
5.55241e-09
6.75584e-09
5.52056e-09
8.29657e-09
0.000151091
0.00843248
0.00487879
0.000122025
1.33919e-09
9.53112e-10
1.30153e-09
1.68788e-09
1.33853e-09
2.398e-09
0.000108083
0.0048773
0.0031208
0.000114553
6.88434e-09
6.93834e-10
1.14462e-09
9.70948e-10
8.51261e-10
2.18328e-09
0.000116381
0.00312851
0.00215976
0.000125041
2.7577e-08
1.99423e-09
1.88708e-09
2.34462e-09
2.48032e-09
4.04468e-09
9.24258e-05
0.00216894
0.00158587
9.34231e-05
2.06152e-07
1.06451e-08
8.80043e-09
1.39081e-08
1.42207e-08
2.01546e-08
7.70603e-05
0.00159634
0.00121998
9.81892e-05
6.70249e-07
5.774e-08
5.20831e-08
4.47974e-08
1.72307e-07
1.86293e-07
8.92935e-05
0.00122936
0.000973686
9.24384e-05
3.98058e-07
1.85363e-07
2.96544e-07
1.22901e-07
5.44054e-07
4.19938e-07
7.88658e-05
0.000981687
0.000797267
7.87501e-05
2.05424e-06
6.07052e-07
6.59813e-07
3.3201e-07
1.0415e-07
5.70407e-07
7.02314e-05
0.000806368
0.000670107
8.45209e-05
2.08456e-06
7.12837e-07
7.43293e-07
5.64157e-07
1.39302e-06
8.05163e-07
6.59472e-05
0.000678853
0.000574546
8.14696e-05
2.23535e-06
1.05012e-06
8.79909e-07
6.26904e-07
1.3094e-06
9.33846e-07
5.44673e-05
0.000581625
0.000500463
7.89154e-05
2.13355e-06
1.17944e-06
1.02533e-06
5.62956e-07
1.19046e-06
1.10697e-06
5.62026e-05
0.000508364
0.000441576
6.86513e-05
3.09203e-06
1.1366e-06
9.46729e-07
5.68689e-07
1.15281e-06
1.14145e-06
4.82643e-05
0.000450585
0.000394092
7.08913e-05
3.23979e-06
1.48224e-06
1.21069e-06
5.14386e-07
1.19013e-06
1.17161e-06
4.42835e-05
0.000404689
0.000354514
6.57661e-05
3.21448e-06
1.52102e-06
1.07935e-06
5.71941e-07
1.24958e-06
1.19074e-06
4.08269e-05
0.000366411
0.000321133
6.33301e-05
3.25396e-06
1.40637e-06
1.26746e-06
6.25428e-07
1.22219e-06
1.23698e-06
3.81501e-05
0.000335606
0.000292397
6.4562e-05
3.63897e-06
1.41455e-06
1.1767e-06
7.45788e-07
1.31998e-06
1.2816e-06
3.56982e-05
0.000308451
0.000267109
6.62976e-05
4.64035e-06
1.5577e-06
1.18933e-06
8.38401e-07
1.3186e-06
1.36135e-06
3.32813e-05
0.000286977
0.000244346
7.17089e-05
5.71413e-06
1.7229e-06
1.28446e-06
9.7095e-07
1.39492e-06
1.4916e-06
3.15191e-05
0.000266407
0.000223372
7.59753e-05
7.8312e-06
2.03748e-06
1.40901e-06
1.06603e-06
1.46488e-06
1.6159e-06
2.9939e-05
0.000251166
0.000203495
8.51267e-05
9.90896e-06
2.37606e-06
1.57786e-06
1.24027e-06
1.5782e-06
1.7834e-06
2.9534e-05
0.00023449
0.000184284
9.34066e-05
1.4398e-05
3.17375e-06
1.8336e-06
1.39658e-06
1.65135e-06
1.91295e-06
2.79369e-05
0.000223571
0.000165145
0.000107541
1.87899e-05
4.20691e-06
2.17785e-06
1.69564e-06
1.87265e-06
2.14304e-06
2.57441e-05
0.00020874
0.000146029
0.000123765
2.91385e-05
6.23665e-06
2.84025e-06
2.05515e-06
2.13332e-06
2.37913e-06
2.37994e-05
0.000199921
0.000126296
0.000133781
4.51251e-05
9.83809e-06
3.91305e-06
2.68285e-06
2.68695e-06
2.87655e-06
2.02044e-05
0.000184828
0.000105717
0.000148546
7.25826e-05
1.69111e-05
6.15238e-06
3.67138e-06
3.40391e-06
3.43811e-06
1.82307e-05
0.000174509
8.57492e-05
0.000165753
0.000102461
3.09291e-05
1.03635e-05
5.52918e-06
4.64492e-06
4.77424e-06
1.54304e-05
0.000154039
7.10664e-05
0.000188482
0.000147993
6.04939e-05
2.15558e-05
9.22286e-06
6.54484e-06
6.22229e-06
1.73067e-05
0.00013594
0.11315
0.0149668
0.013059
0.0130549
0.0130552
0.0130552
0.0130549
0.013059
0.0149617
0.113021
0.0393508
0.000743321
0.000284065
0.000279905
0.000279912
0.000280003
0.000280371
0.0002843
0.000744177
0.0391201
0.0166345
0.000309045
4.44868e-07
2.95582e-07
4.37705e-07
4.47059e-07
4.08106e-07
4.83356e-07
0.000306466
0.01657
0.0083635
0.000156396
5.02553e-09
6.66319e-10
5.32706e-09
6.00631e-09
5.21565e-09
6.81116e-09
0.000154459
0.00833992
0.00482013
0.000131619
1.20325e-09
5.41078e-13
4.78856e-11
1.65936e-10
3.50612e-11
1.0657e-09
0.000117464
0.00481691
0.00308374
0.000141325
9.41631e-10
2.5879e-13
3.3427e-13
3.19209e-12
6.49966e-13
4.64538e-10
0.000121284
0.00308884
0.00213358
0.000106582
2.83643e-09
3.41817e-13
1.4779e-13
8.85059e-13
2.59794e-13
1.15625e-09
9.9301e-05
0.00214246
0.00156851
0.000123201
2.20935e-08
3.83018e-12
5.18202e-13
2.15403e-12
1.6204e-13
3.14354e-09
8.46267e-05
0.00157751
0.00120742
0.000110801
1.07832e-07
2.1023e-10
5.68173e-13
3.6878e-12
1.64317e-12
1.30932e-08
6.50329e-05
0.00121641
0.000962609
0.000106545
3.85277e-07
4.83822e-08
6.30921e-12
5.11952e-11
4.07157e-11
3.48931e-08
7.44976e-05
0.000972777
0.00079043
0.000105215
9.41152e-07
9.43603e-09
1.26974e-10
2.04033e-10
1.13849e-10
3.58935e-08
6.07512e-05
0.000801478
0.000663029
9.75204e-05
1.1654e-06
7.74439e-09
1.19717e-09
1.38382e-09
2.17257e-09
8.11823e-08
5.7788e-05
0.000675502
0.000568391
9.56135e-05
1.61534e-06
2.21776e-08
1.80223e-09
1.73478e-09
2.63772e-09
1.27937e-07
5.63954e-05
0.000581591
0.000495533
9.1318e-05
1.5484e-06
2.03459e-08
3.19775e-09
1.71823e-09
4.31347e-09
1.31145e-07
4.93051e-05
0.000509686
0.000437468
8.83786e-05
2.83878e-06
5.20858e-08
4.41227e-09
2.39289e-09
5.26952e-09
1.19861e-07
4.92939e-05
0.00045252
0.000390355
8.47512e-05
3.3991e-06
6.15086e-08
6.01561e-09
2.48327e-09
6.92433e-09
1.29661e-07
4.39991e-05
0.00040705
0.000351209
8.24553e-05
3.88453e-06
7.69036e-08
7.54638e-09
3.19082e-09
7.70022e-09
1.4492e-07
4.23605e-05
0.000369035
0.000318201
8.03608e-05
3.68727e-06
1.07861e-07
8.60308e-09
3.60507e-09
9.01132e-09
1.66799e-07
4.05816e-05
0.000338477
0.000289645
8.07311e-05
3.97404e-06
1.28733e-07
1.26698e-08
4.32782e-09
9.75419e-09
1.84935e-07
3.83587e-05
0.000311461
0.000264623
8.13753e-05
4.93537e-06
2.02521e-07
1.45902e-08
7.14866e-09
1.10469e-08
2.16074e-07
3.63803e-05
0.000290175
0.000241976
7.78891e-05
5.81385e-06
2.79589e-07
2.53805e-08
8.0739e-09
1.20834e-08
2.65617e-07
3.47701e-05
0.000269698
0.000221192
7.93158e-05
7.64271e-06
4.74536e-07
3.3523e-08
1.34769e-08
1.61802e-08
3.00871e-07
3.28172e-05
0.000254489
0.000201557
8.52386e-05
9.48426e-06
7.05736e-07
7.16554e-08
1.5745e-08
1.70563e-08
3.11706e-07
3.01733e-05
0.000237746
0.000182715
9.19214e-05
1.34151e-05
1.20159e-06
1.06348e-07
2.78932e-08
2.78275e-08
3.0972e-07
2.78492e-05
0.0002264
0.000164091
0.00010384
1.74424e-05
2.00718e-06
2.69369e-07
3.75334e-08
2.80715e-08
3.15783e-07
2.40582e-05
0.000211233
0.000145648
0.000118372
2.50112e-05
3.45278e-06
3.98565e-07
8.82259e-08
5.2764e-08
2.96773e-07
2.12629e-05
0.000201353
0.000127012
0.000127301
4.07324e-05
6.18831e-06
1.00914e-06
1.37156e-07
5.99979e-08
2.54771e-07
1.68669e-05
0.000186222
0.000107862
0.000136222
6.14865e-05
1.1302e-05
1.77969e-06
3.81116e-07
1.44131e-07
2.25957e-07
1.40698e-05
0.000173059
8.88112e-05
0.000149539
8.43856e-05
2.14125e-05
4.33158e-06
7.64319e-07
1.93635e-07
2.6895e-07
9.74461e-06
0.000152387
7.00227e-05
0.000160771
0.000113267
3.47401e-05
8.89441e-06
2.23007e-06
6.7942e-07
3.32261e-07
8.44285e-06
0.000130617
0.113132
0.0149683
0.0130593
0.0130552
0.0130553
0.0130554
0.0130551
0.0130592
0.0149633
0.113003
0.0392952
0.000742758
0.000283653
0.000279971
0.000279108
0.000279361
0.000279578
0.00028362
0.000743716
0.0390648
0.0165804
0.000310751
4.71902e-07
4.469e-07
3.82732e-07
2.71531e-07
3.57474e-07
4.45824e-07
0.000308247
0.0165166
0.00832278
0.000160272
6.279e-09
5.69257e-09
4.69868e-09
7.3584e-10
3.47638e-09
5.76024e-09
0.000158115
0.00830015
0.0047906
0.000142823
1.52561e-09
1.05503e-11
1.49532e-11
9.53024e-15
9.8149e-11
1.48928e-09
0.00012916
0.0047876
0.00306118
0.000146348
1.19323e-09
1.72448e-13
1e-15
1e-15
9.51004e-13
6.27042e-10
0.000135876
0.00306711
0.00211658
0.000116561
2.03009e-09
1.38728e-13
1e-15
1e-15
3.09915e-13
1.21987e-09
9.87123e-05
0.00212554
0.00155446
0.000107188
2.49428e-08
3.14871e-13
1e-15
1e-15
3.95462e-14
7.28838e-09
0.000117723
0.00156409
0.00119611
0.000114375
8.46045e-08
4.69019e-12
1e-15
1e-15
1.74887e-13
3.81197e-08
0.000103437
0.00120606
0.000953951
0.000101766
3.03878e-07
2.9364e-10
1.93034e-14
1.0777e-14
3.98302e-12
1.05937e-07
8.34181e-05
0.000964172
0.000783469
9.08926e-05
6.53717e-07
3.29848e-09
1.25032e-11
8.46554e-14
1.8965e-12
2.04911e-07
7.05869e-05
0.00079385
0.000654566
9.52465e-05
1.34681e-06
6.72362e-09
1.27402e-11
8.46927e-13
6.88874e-11
3.8323e-07
7.17567e-05
0.0006688
0.000562232
9.30473e-05
1.41917e-06
8.56959e-09
3.09942e-11
1.8179e-12
3.67863e-11
2.04013e-07
6.48199e-05
0.000576096
0.000490644
8.63401e-05
1.54249e-06
1.24791e-08
4.83218e-11
3.71636e-12
6.52451e-11
4.77523e-07
5.89897e-05
0.000504892
0.000433586
8.13207e-05
1.75292e-06
1.90429e-08
1.11791e-10
5.78112e-12
1.32551e-10
3.28284e-07
5.42096e-05
0.000448205
0.000387049
7.57302e-05
2.12414e-06
3.09309e-08
2.95437e-10
5.76772e-12
1.98483e-10
3.81827e-07
5.08353e-05
0.000403066
0.000348676
7.92982e-05
2.52648e-06
4.38592e-08
2.9374e-10
1.77608e-11
3.31461e-10
3.24587e-07
4.52717e-05
0.000365355
0.000315926
7.44847e-05
3.17147e-06
7.81281e-08
2.1158e-09
1.16257e-11
3.03184e-10
3.15864e-07
4.14316e-05
0.000335025
0.000287914
8.03237e-05
3.88374e-06
1.12436e-07
1.93753e-09
6.26575e-11
3.79627e-10
3.26482e-07
3.86166e-05
0.000308207
0.000263257
8.13941e-05
4.99917e-06
2.10221e-07
9.50409e-09
3.01394e-10
5.70379e-10
3.47624e-07
3.63738e-05
0.000287168
0.000241036
8.27279e-05
6.04898e-06
3.0412e-07
1.31923e-08
6.77368e-10
8.69582e-10
3.87686e-07
3.34609e-05
0.000266765
0.000220532
8.09606e-05
7.77495e-06
5.12697e-07
3.79697e-08
1.83722e-09
1.00229e-09
3.84371e-07
3.12472e-05
0.000251726
0.00020108
8.33748e-05
9.3536e-06
7.5197e-07
4.919e-08
3.82205e-09
1.07534e-09
3.57178e-07
2.79798e-05
0.000234854
0.000182452
9.03831e-05
1.27776e-05
1.17783e-06
1.29946e-07
6.20593e-09
1.16082e-09
3.18211e-07
2.55126e-05
0.000223664
0.000163874
9.89822e-05
1.63236e-05
1.864e-06
1.78509e-07
2.63526e-08
2.74249e-09
2.71721e-07
2.18111e-05
0.000208141
0.000145343
0.000114281
2.29165e-05
2.96617e-06
4.59399e-07
3.77413e-08
7.18511e-09
2.23312e-07
1.91382e-05
0.000198747
0.000126442
0.000123646
3.70404e-05
5.51093e-06
7.02788e-07
1.32708e-07
1.33907e-08
1.71714e-07
1.50731e-05
0.000182435
0.000106721
0.000132753
5.78435e-05
1.00024e-05
1.82871e-06
2.2671e-07
2.00572e-08
1.31393e-07
1.25676e-05
0.00017001
8.6688e-05
0.000145755
8.08131e-05
1.94519e-05
3.5572e-06
7.56824e-07
1.76712e-07
1.3527e-07
8.54891e-06
0.000148367
6.60293e-05
0.000157358
0.000109058
3.31953e-05
8.26231e-06
1.87072e-06
3.82781e-07
1.98888e-07
7.51683e-06
0.000125387
0.113131
0.0149683
0.0130592
0.0130551
0.0130554
0.0130551
0.0130551
0.0130592
0.0149633
0.113003
0.0392953
0.000742699
0.000283333
0.000279219
0.000278839
0.000278974
0.000279958
0.000283744
0.000743632
0.0390651
0.0165805
0.000310827
3.86185e-07
2.77875e-07
2.96055e-07
3.89415e-07
4.36513e-07
4.68596e-07
0.000308941
0.016517
0.00832306
0.000161881
3.99068e-09
1.33522e-10
1.38347e-10
3.45028e-10
5.39424e-09
5.77503e-09
0.000158283
0.00830079
0.00479091
0.000146575
1.02919e-09
5.3454e-13
6.95463e-14
2.94348e-13
7.69341e-11
1.39782e-09
0.000130447
0.00478809
0.00306116
0.000145138
1.15467e-09
4.37524e-14
1e-15
1e-15
2.45747e-13
6.9656e-10
0.000139889
0.00306741
0.00211672
0.000121046
4.96555e-09
1.12311e-13
1e-15
1e-15
2.219e-13
8.32804e-10
0.000111899
0.0021258
0.00155434
9.75431e-05
3.26392e-08
2.76183e-09
1e-15
1e-15
5.00224e-14
1.84196e-09
8.97669e-05
0.00156409
0.00119564
8.13321e-05
2.26841e-07
5.00965e-10
2.43017e-14
1e-15
1.51998e-12
5.70042e-09
6.88093e-05
0.00120542
0.000953391
7.57115e-05
3.71083e-07
1.644e-09
4.24641e-13
1e-15
8.12867e-13
1.10262e-08
7.54436e-05
0.000964226
0.000782575
7.67512e-05
7.16582e-07
7.95163e-09
1.2576e-11
1e-15
5.5593e-13
3.17721e-08
7.82773e-05
0.000793145
0.000656657
8.0017e-05
1.06277e-06
1.03146e-08
4.23647e-11
1e-15
8.51032e-13
9.31324e-08
7.44689e-05
0.000669089
0.000563329
8.18468e-05
1.33998e-06
1.19905e-08
4.83577e-11
1e-15
7.4235e-13
6.60609e-08
7.19822e-05
0.000576188
0.000491147
7.51219e-05
1.60983e-06
2.18613e-08
1.56374e-10
1.34204e-15
8.48037e-13
7.31394e-08
6.51474e-05
0.000504937
0.000433867
7.73966e-05
1.78308e-06
2.16247e-08
3.02817e-11
7.25334e-14
1.59898e-12
9.34877e-08
5.58319e-05
0.00044836
0.000387196
7.52517e-05
2.10843e-06
4.14523e-08
6.98806e-10
2.81634e-12
1.59019e-12
1.10974e-07
4.81683e-05
0.000403152
0.00034848
7.13244e-05
2.3978e-06
4.43846e-08
3.56068e-10
3.14787e-13
2.56283e-12
1.27047e-07
4.29272e-05
0.000365433
0.000315805
7.09856e-05
3.19955e-06
7.32892e-08
2.26789e-09
4.43159e-12
1.96395e-12
1.3768e-07
4.01044e-05
0.000335047
0.000287743
7.28416e-05
3.81031e-06
1.11659e-07
2.1082e-09
4.46574e-11
2.85018e-12
1.59266e-07
3.7579e-05
0.000308351
0.000263104
7.55385e-05
5.23857e-06
1.95442e-07
9.04298e-09
7.46071e-11
2.77503e-12
2.10324e-07
3.66952e-05
0.000287339
0.000240967
7.98746e-05
6.36484e-06
3.04901e-07
1.10179e-08
7.99705e-10
3.96713e-12
2.67229e-07
3.50089e-05
0.000267094
0.000220642
8.42567e-05
8.69792e-06
5.25501e-07
3.69062e-08
8.7658e-10
5.27957e-12
2.92263e-07
3.27439e-05
0.000252141
0.000201416
9.05435e-05
1.06478e-05
8.05029e-07
5.01621e-08
8.80726e-10
1.05574e-11
3.10947e-07
2.92929e-05
0.000235204
0.000182934
9.80728e-05
1.47041e-05
1.33963e-06
1.49071e-07
1.0981e-08
3.04489e-11
2.7319e-07
2.64019e-05
0.000224094
0.000164499
0.000105797
1.84067e-05
2.16691e-06
2.08916e-07
8.85366e-09
1.88448e-10
2.69153e-07
2.23426e-05
0.00020836
0.000145999
0.000118343
2.51276e-05
3.3561e-06
5.32992e-07
6.60303e-08
3.25078e-09
2.19429e-07
1.93597e-05
0.000198797
0.000127088
0.000126073
4.01022e-05
6.15508e-06
7.98728e-07
1.01254e-07
8.47666e-09
1.81533e-07
1.50272e-05
0.000182646
0.000107353
0.00013392
5.81591e-05
1.10495e-05
1.986e-06
3.81984e-07
4.37462e-08
1.13793e-07
1.24656e-05
0.000168908
8.72635e-05
0.000145844
8.15529e-05
1.88979e-05
3.57428e-06
6.53989e-07
9.30061e-08
1.28669e-07
8.25496e-06
0.000148288
6.66291e-05
0.000157286
0.000109017
3.38941e-05
8.31104e-06
2.13843e-06
4.71912e-07
1.87386e-07
7.40489e-06
0.000122016
0.113149
0.0149668
0.013059
0.0130549
0.0130549
0.0130551
0.013055
0.013059
0.0149617
0.113022
0.0393506
0.000743167
0.000284149
0.000280519
0.000279531
0.000279729
0.00028053
0.000284148
0.000744007
0.0391206
0.0166352
0.000308177
4.65387e-07
4.41357e-07
3.88472e-07
3.89676e-07
4.39271e-07
4.33011e-07
0.000307321
0.0165716
0.00836499
0.000161344
6.73108e-09
5.5372e-09
3.19024e-10
4.689e-09
5.50261e-09
4.29886e-09
0.000156438
0.00834262
0.00482162
0.000146682
1.64299e-09
2.04253e-11
1.04695e-14
5.56612e-12
2.03995e-11
1.12887e-09
0.00012798
0.00481901
0.0030839
0.000141158
1.08204e-09
1.90297e-13
1e-15
1e-15
2.5405e-14
5.78914e-10
0.000131908
0.00309009
0.00213388
0.000117655
2.75057e-09
1.67494e-13
1.09334e-14
8.44189e-15
7.99678e-13
1.06016e-09
9.63925e-05
0.00214291
0.00156826
0.00010246
7.94259e-09
1.337e-12
3.38757e-13
2.09588e-14
8.78068e-13
1.96199e-09
0.000117933
0.00157771
0.00120613
7.92033e-05
5.50486e-08
3.64539e-12
1.45232e-12
1.25141e-13
1.45123e-12
5.98082e-09
0.000105048
0.00121682
0.000963068
8.81863e-05
3.16667e-07
2.1988e-10
2.80721e-12
2.47015e-13
1.21002e-12
9.876e-09
7.42049e-05
0.000973038
0.000788834
7.82406e-05
7.00729e-07
2.02369e-09
1.37567e-11
4.59339e-13
1.4951e-12
2.52449e-08
8.16752e-05
0.000801555
0.000663113
8.35857e-05
9.16668e-07
2.62408e-09
3.7778e-11
1.19738e-12
1.64318e-12
1.01507e-07
7.18866e-05
0.000675474
0.000568824
8.33147e-05
1.19615e-06
8.00047e-09
3.85384e-10
1.4201e-11
1.89273e-12
1.1515e-07
6.80684e-05
0.000581715
0.000495841
7.83398e-05
1.45945e-06
1.01567e-08
3.14945e-10
2.3438e-11
3.94153e-12
9.09217e-08
6.03695e-05
0.000509809
0.000437553
6.89311e-05
1.59052e-06
1.85022e-08
5.3072e-10
1.39981e-10
7.32022e-12
8.34963e-08
5.26513e-05
0.000452694
0.000390372
7.29347e-05
2.04724e-06
2.65277e-08
2.06062e-09
2.92976e-10
2.28019e-11
1.55706e-07
4.6475e-05
0.000407133
0.000351113
6.94231e-05
2.40792e-06
3.8481e-08
2.15419e-09
4.96603e-10
4.47852e-11
1.54813e-07
4.22003e-05
0.000369074
0.000317978
6.8263e-05
3.20074e-06
7.29236e-08
3.67113e-09
9.16697e-10
1.28247e-10
1.73986e-07
3.96837e-05
0.000338441
0.000289478
7.04585e-05
3.82856e-06
1.08824e-07
6.19395e-09
1.70161e-09
5.15724e-10
1.93282e-07
3.7679e-05
0.000311444
0.000264438
7.24374e-05
5.07879e-06
1.9713e-07
1.36108e-08
2.78903e-09
3.96587e-10
2.28843e-07
3.5732e-05
0.000290097
0.000241957
7.75529e-05
6.18359e-06
2.87363e-07
1.76618e-08
4.6278e-09
4.4551e-09
2.72049e-07
3.34727e-05
0.000269606
0.000221319
8.17271e-05
8.40878e-06
5.16415e-07
3.95518e-08
6.96164e-09
5.54562e-09
2.92565e-07
3.11589e-05
0.000254227
0.000201875
8.92932e-05
1.04221e-05
7.76932e-07
6.11205e-08
1.40594e-08
9.48293e-09
2.96096e-07
2.84598e-05
0.000237395
0.000183185
9.65033e-05
1.449e-05
1.34602e-06
1.63301e-07
2.30184e-08
1.4994e-08
2.88046e-07
2.57518e-05
0.000225834
0.000164669
0.000106125
1.82437e-05
2.16284e-06
2.38115e-07
5.47374e-08
2.88701e-08
2.86006e-07
2.24322e-05
0.000210403
0.000146284
0.00011955
2.57889e-05
3.45986e-06
5.95366e-07
8.28859e-08
3.91107e-08
2.70265e-07
1.94865e-05
0.000200907
0.000127676
0.000127109
4.1001e-05
6.3242e-06
8.84529e-07
2.11308e-07
9.12227e-08
2.28718e-07
1.55041e-05
0.00018408
0.000108612
0.000135576
5.95979e-05
1.1644e-05
2.23497e-06
3.54657e-07
1.16584e-07
2.42788e-07
1.26079e-05
0.000172975
8.95784e-05
0.000147681
8.30026e-05
1.97244e-05
3.91252e-06
9.74749e-07
3.29342e-07
2.73665e-07
8.88393e-06
0.000150264
7.09906e-05
0.000159726
0.00011151
3.50479e-05
9.09834e-06
2.07058e-06
6.01117e-07
4.43315e-07
8.09216e-06
0.000130555
0.113225
0.0149753
0.013063
0.013059
0.0130592
0.0130592
0.013059
0.0130628
0.0149703
0.1131
0.0395255
0.000748924
0.000287633
0.000284228
0.000283734
0.000283711
0.000284327
0.000287163
0.000749856
0.0392956
0.0167816
0.000311411
4.73843e-07
4.59324e-07
4.76298e-07
4.62916e-07
4.8171e-07
3.37974e-07
0.00031113
0.0167152
0.00846269
0.000166664
8.73019e-09
5.38082e-09
6.68374e-09
5.9561e-09
6.2034e-09
2.13896e-09
0.000160373
0.00843882
0.00488434
0.000155314
2.57287e-09
1.41544e-09
1.69351e-09
1.49559e-09
1.5338e-09
1.41927e-09
0.000138509
0.0048824
0.00312406
0.000152967
3.4519e-09
7.44963e-10
7.50618e-10
6.54865e-10
6.18155e-10
5.38704e-09
0.000131524
0.00313099
0.00215989
0.000113569
6.20583e-09
7.15234e-10
7.8146e-10
1.03974e-09
9.62946e-10
2.01379e-08
9.34405e-05
0.00216935
0.00158661
0.000123084
2.75965e-08
2.11375e-09
1.90598e-09
2.13147e-09
1.79545e-09
1.78721e-07
0.000113439
0.00159573
0.00121954
0.000101721
2.06928e-07
6.41416e-09
5.08123e-09
6.27466e-09
6.04092e-09
4.34248e-07
0.00010021
0.00122892
0.000971293
9.87755e-05
8.30527e-07
1.37951e-08
1.22407e-08
2.40953e-08
1.74213e-08
6.25307e-07
8.22141e-05
0.000980787
0.000797489
8.63197e-05
9.99434e-07
1.60959e-08
3.22481e-08
3.42901e-08
6.61695e-08
8.46303e-07
7.11072e-05
0.000805378
0.000670496
7.28183e-05
1.12128e-06
4.79201e-08
1.31761e-07
3.6631e-08
1.53743e-07
1.0667e-06
7.41999e-05
0.000677669
0.000574811
7.23971e-05
1.51685e-06
8.66214e-08
2.33491e-07
6.49321e-08
1.63285e-07
9.23994e-07
6.65911e-05
0.00058205
0.000500476
7.12667e-05
1.66892e-06
1.84439e-07
3.06711e-07
9.70726e-08
1.98889e-07
1.27552e-06
6.03793e-05
0.000508992
0.000441557
6.9858e-05
1.87456e-06
2.51638e-07
3.46368e-07
1.91448e-07
3.50154e-07
1.2251e-06
5.63544e-05
0.000451041
0.00039395
6.99966e-05
2.29261e-06
3.50118e-07
3.32098e-07
2.3495e-07
3.27839e-07
1.09664e-06
5.08293e-05
0.00040488
0.000354345
6.84574e-05
2.68526e-06
4.10002e-07
4.07322e-07
2.47147e-07
3.95661e-07
1.13452e-06
4.71942e-05
0.000366499
0.000321088
6.90732e-05
3.58186e-06
5.01335e-07
4.55761e-07
3.51466e-07
4.89092e-07
1.18948e-06
4.48311e-05
0.000335636
0.000292407
7.07949e-05
4.235e-06
6.70489e-07
5.39977e-07
3.46185e-07
6.23089e-07
1.2383e-06
4.21421e-05
0.000308545
0.000267187
7.59336e-05
5.73149e-06
9.72023e-07
7.18081e-07
4.43618e-07
7.25467e-07
1.36647e-06
4.00605e-05
0.000287177
0.000244536
8.07408e-05
6.96907e-06
1.3393e-06
8.58569e-07
5.77976e-07
8.84141e-07
1.49693e-06
3.74774e-05
0.0002667
0.000223675
8.91548e-05
9.68048e-06
1.6415e-06
1.06199e-06
8.44268e-07
1.0552e-06
1.62217e-06
3.55393e-05
0.000251579
0.000204122
9.76269e-05
1.2251e-05
2.23237e-06
1.45992e-06
1.13635e-06
1.32365e-06
1.77782e-06
3.26687e-05
0.000234864
0.000184989
0.000104326
1.68264e-05
3.05378e-06
1.91592e-06
1.53774e-06
1.60706e-06
1.94168e-06
3.042e-05
0.00022391
0.000166124
0.000117228
2.17549e-05
4.47408e-06
2.48186e-06
1.94648e-06
2.01997e-06
2.21779e-06
2.72247e-05
0.000208996
0.000146916
0.00012868
3.06327e-05
6.41259e-06
3.16497e-06
2.51916e-06
2.46736e-06
2.49564e-06
2.45251e-05
0.000200162
0.000127423
0.00013884
4.98378e-05
1.08366e-05
4.34128e-06
3.23996e-06
3.13671e-06
3.12462e-06
2.11951e-05
0.000185191
0.000106719
0.000150762
7.39057e-05
1.78642e-05
6.60937e-06
4.34412e-06
4.02478e-06
3.87637e-06
1.84812e-05
0.000174361
8.6919e-05
0.00016932
0.000107154
3.26871e-05
1.11008e-05
6.35499e-06
5.55447e-06
5.45725e-06
1.6571e-05
0.000154295
7.23415e-05
0.000189695
0.000149838
6.09476e-05
2.2322e-05
1.0657e-05
7.88107e-06
7.44953e-06
1.85877e-05
0.00013506
0.11357
0.0170641
0.0149706
0.0149622
0.0149638
0.0149637
0.0149622
0.0149708
0.0170598
0.113453
0.0398185
0.00121821
0.000751095
0.000744579
0.000744011
0.000743943
0.000744303
0.000750173
0.00121851
0.039596
0.0169751
0.000896574
0.000312451
0.00030841
0.00031051
0.000309817
0.000308587
0.000311987
0.000900394
0.0168923
0.0085633
0.000793441
0.000152191
0.000155293
0.000158423
0.000160754
0.000158112
0.00016268
0.000781877
0.0085326
0.00492998
0.000637407
0.000112336
0.000122386
0.000131377
0.000136545
0.000132453
0.000142972
0.000594574
0.00493211
0.00313562
0.000390484
0.000125576
0.000124535
0.000140497
0.000126967
0.000121932
0.000130125
0.000471803
0.0031518
0.00215925
0.000404044
9.73546e-05
9.81142e-05
0.000116498
9.84446e-05
0.000103373
9.28217e-05
0.000378427
0.0021745
0.00157645
0.000351563
8.61143e-05
9.48123e-05
8.4149e-05
0.000121758
0.000122871
0.000115701
0.000342751
0.0015905
0.00120584
0.000313776
9.85504e-05
7.63916e-05
9.98663e-05
0.000105434
0.000108762
8.43592e-05
0.000328564
0.00121786
0.000955338
0.000215152
7.08859e-05
8.50985e-05
9.01826e-05
0.000102991
8.99873e-05
8.35111e-05
0.000283997
0.000967864
0.000778807
0.000158486