/*--------------------------------*- C++ -*----------------------------------*\
| =========                 |                                                 |
| \\      /  F ield         | OpenFOAM: The Open Source CFD Toolbox           |
|  \\    /   O peration     | Version:  4.1                                   |
|   \\  /    A nd           | Web:      www.OpenFOAM.org                      |
|    \\/     M anipulation  |                                                 |
\*---------------------------------------------------------------------------*/
FoamFile
{
    version     2.0;
    format      ascii;
    class       volScalarField;
    location    "300";
    object      nut;
}
// * * * * * * * * * * * * * * * * * * * * * * * * * * * * * * * * * * * * * //

dimensions      [0 2 -1 0 0 0 0];

internalField   nonuniform List<scalar> 
12000
(
0.00381768
0.00371363
0.00370947
0.00370811
0.00370776
0.00370773
0.003708
0.00370946
0.0037187
0.00382362
0.00226533
0.00224679
0.0022452
0.00224061
0.00223914
0.00223916
0.00224059
0.00224425
0.00224301
0.00225829
0.00146427
0.00146675
0.00146244
0.00145727
0.00145517
0.00145521
0.00145748
0.0014631
0.00146553
0.00146264
0.00103329
0.00104154
0.00103699
0.00103305
0.00103103
0.00103116
0.00103378
0.00104019
0.00104091
0.00103186
0.000781038
0.000791459
0.000787092
0.000783639
0.000781798
0.000781929
0.000784486
0.000791021
0.000791198
0.000780773
0.000620018
0.00063064
0.00062909
0.000626058
0.000624156
0.000624351
0.000626572
0.000631754
0.000630627
0.000621277
0.000511841
0.000524082
0.000522578
0.000520016
0.000518218
0.000518256
0.000520377
0.000524135
0.000524025
0.000513219
0.000435628
0.000447938
0.000447673
0.000445376
0.000443378
0.000443554
0.000445322
0.000448469
0.000448459
0.000437081
0.000379886
0.000391813
0.000392232
0.000390358
0.000389075
0.000388892
0.000390929
0.000393136
0.000391654
0.000381419
0.00033768
0.000349253
0.000351065
0.00034858
0.000347439
0.000347146
0.000348852
0.000350827
0.00034839
0.000339335
0.00030446
0.000313757
0.000316892
0.00031656
0.000313217
0.000315104
0.000318453
0.00031842
0.000315101
0.000306572
0.000277896
0.000286027
0.000290189
0.0002891
0.000287405
0.000287605
0.000284149
0.000290122
0.000289233
0.000280611
0.000256255
0.000264367
0.000269094
0.000268315
0.000267009
0.000267152
0.000265182
0.000268728
0.000263599
0.000259197
0.000238251
0.000246752
0.00025179
0.00025106
0.000250186
0.00025037
0.000249853
0.000252003
0.000246311
0.000241738
0.000222996
0.000232165
0.000236953
0.00023652
0.000235915
0.000236127
0.000236508
0.000237962
0.000232619
0.000227292
0.000209805
0.000219311
0.00022425
0.000224042
0.00022364
0.000223947
0.000224715
0.000225899
0.00022107
0.000215184
0.000198237
0.000208202
0.000213332
0.000213256
0.000212976
0.000213323
0.000214343
0.000215489
0.000210961
0.000204927
0.000187905
0.000198514
0.000203836
0.000203855
0.000203771
0.000204198
0.000205266
0.000206378
0.000202032
0.000196138
0.000178472
0.000189858
0.000195348
0.000195591
0.000195574
0.000196113
0.000197263
0.000198603
0.000194459
0.000188647
0.000169625
0.00018197
0.000187831
0.000188284
0.000188482
0.000189158
0.000190327
0.000191718
0.000187746
0.000182163
0.000161054
0.000174526
0.000180888
0.000181711
0.000182006
0.000182849
0.000184191
0.000185858
0.000182256
0.000176765
0.000152387
0.000167289
0.000174488
0.000175797
0.000176439
0.000177542
0.000178865
0.00018062
0.000177369
0.000172076
0.000143209
0.000159912
0.000168287
0.000170224
0.000171017
0.000172358
0.00017406
0.000176245
0.000173663
0.000168466
0.000132777
0.000151871
0.000162259
0.000165133
0.000166505
0.000168161
0.000169862
0.000172242
0.000170217
0.000165316
0.000120042
0.000142351
0.000155766
0.000159905
0.000161606
0.000163631
0.000166038
0.000169149
0.000168027
0.000163461
0.000101931
0.000130386
0.000148307
0.000154795
0.000157564
0.000160058
0.000162452
0.000166014
0.000165894
0.000161947
7.49716e-05
0.000113465
0.000138527
0.000147866
0.000152146
0.000155575
0.000159079
0.000164081
0.000164583
0.000162419
6.22561e-05
9.18644e-05
0.000124252
0.000140883
0.000146795
0.000151378
0.000155303
0.000160802
0.00016425
0.000161309
7.19848e-05
8.53078e-05
0.000101279
0.000118497
0.000138185
0.000146031
0.000149372
0.000159534
0.000162876
0.000168038
9.08318e-05
0.000103074
0.000103173
0.000114607
0.000107071
0.000127884
0.000144449
0.000151049
0.000164001
0.000167041
0.00371363
2.63276e-05
2.02807e-05
2.02714e-05
2.02777e-05
2.02777e-05
2.02713e-05
2.02806e-05
2.62813e-05
0.00370766
0.00224673
3.01159e-06
3.06673e-06
3.07211e-06
3.06533e-06
3.06356e-06
3.06787e-06
3.04853e-06
3.03257e-06
0.00220764
0.00146664
4.50687e-05
1.58957e-05
1.6016e-05
1.62594e-05
1.62858e-05
1.60883e-05
1.58802e-05
4.62633e-05
0.00144478
0.00104135
0.000209548
1.33286e-05
1.45101e-05
1.53353e-05
1.55191e-05
1.51073e-05
1.61271e-05
0.000198256
0.00102721
0.000791211
0.000322942
2.51643e-05
3.10774e-05
3.83403e-05
4.00576e-05
3.79695e-05
4.52685e-05
0.000312475
0.00078741
0.000630305
0.00024803
6.97652e-05
8.59673e-05
9.57758e-05
0.000109641
0.000104307
9.25648e-05
0.000242407
0.00063494
0.000523716
0.00049345
7.4923e-05
8.53372e-05
8.98942e-05
9.04909e-05
9.08728e-05
8.28013e-05
0.000464894
0.000529669
0.000447473
0.000513191
6.78086e-05
5.56398e-05
4.4275e-05
5.01004e-05
4.33904e-05
5.04111e-05
0.000573006
0.000454313
0.000391266
0.000578377
2.96561e-05
3.63638e-05
5.43057e-05
4.25766e-05
5.63321e-05
3.97539e-05
0.000240244
0.000396952
0.0003486
0.000378963
6.62458e-05
4.92251e-05
6.59656e-05
5.22303e-05
6.1806e-05
2.8569e-05
0.000109725
0.000352761
0.000312933
0.000153479
3.56503e-05
7.58465e-05
4.02071e-05
8.60591e-05
5.13649e-05
5.08041e-05
0.000110437
0.000317955
0.000285046
0.000126802
4.30009e-05
3.70316e-05
4.35862e-05
5.25179e-05
3.64927e-05
3.23292e-05
0.000155168
0.000291317
0.000263197
0.000105134
4.15448e-05
4.68058e-05
5.28931e-05
5.62973e-05
5.7495e-05
4.38524e-05
9.26575e-05
0.000265207
0.000245351
0.000130226
4.71135e-05
4.89234e-05
4.96403e-05
4.53456e-05
6.44444e-05
4.62253e-05
0.000106452
0.000247636
0.000230503
0.000127824
4.93682e-05
4.39669e-05
4.17734e-05
3.99701e-05
5.40766e-05
4.40668e-05
9.57455e-05
0.000233817
0.000217337
0.000120312
4.43196e-05
4.18252e-05
3.86301e-05
3.45513e-05
4.4655e-05
3.77416e-05
8.21943e-05
0.000222319
0.000205845
0.000116797
4.96854e-05
3.99512e-05
3.69348e-05
3.43426e-05
3.92056e-05
3.45332e-05
7.17552e-05
0.000212076
0.000195717
0.000121122
4.87345e-05
3.96676e-05
3.58015e-05
3.46098e-05
3.59389e-05
3.36807e-05
6.85319e-05
0.000203205
0.00018656
0.000125579
4.88537e-05
4.09498e-05
3.62156e-05
3.57118e-05
3.59e-05
3.40307e-05
6.39162e-05
0.000194945
0.000178116
0.000131633
5.06735e-05
4.14037e-05
3.98818e-05
3.58286e-05
3.52075e-05
3.41163e-05
6.1494e-05
0.000187927
0.000170088
0.000139216
5.78977e-05
4.55017e-05
4.29523e-05
3.92793e-05
3.80628e-05
3.64117e-05
6.22761e-05
0.000181231
0.00016228
0.000146962
6.47788e-05
4.76148e-05
4.56683e-05
4.1315e-05
3.98117e-05
3.79653e-05
6.11322e-05
0.000175835
0.000154457
0.000154622
7.47296e-05
5.08521e-05
4.75019e-05
4.24231e-05
4.14537e-05
4.01622e-05
6.69416e-05
0.000170455
0.000146207
0.000157922
9.12727e-05
5.57442e-05
4.9231e-05
4.40519e-05
4.38516e-05
4.29379e-05
6.07358e-05
0.000166312
0.000137066
0.000163994
0.000102471
6.20591e-05
5.17667e-05
4.76491e-05
4.765e-05
4.80493e-05
6.2782e-05
0.000161373
0.000126275
0.000170309
0.000126917
7.27664e-05
5.68331e-05
5.16359e-05
5.11515e-05
5.07327e-05
6.75983e-05
0.000158244
0.000112914
0.000181738
0.000139091
8.56161e-05
6.50338e-05
5.76333e-05
5.70692e-05
5.79782e-05
7.26014e-05
0.00015256
9.64732e-05
0.00019828
0.00017772
0.000111497
7.83528e-05
6.58211e-05
6.2957e-05
6.26208e-05
7.71421e-05
0.000155643
8.57482e-05
0.000211914
0.000202863
0.000142063
9.85775e-05
7.77308e-05
7.32306e-05
7.36348e-05
8.52905e-05
0.000143538
8.73162e-05
0.00023509
0.000237196
0.000202474
0.000138286
9.97506e-05
8.61684e-05
8.57901e-05
9.92863e-05
0.000157099
0.00370947
2.02819e-05
1.57121e-05
1.57125e-05
1.57151e-05
1.57151e-05
1.57127e-05
1.57124e-05
2.02632e-05
0.00369569
0.00224514
3.06527e-06
1.27367e-06
1.26429e-06
1.26813e-06
1.26958e-06
1.27141e-06
1.28733e-06
3.09996e-06
0.0022005
0.00146231
1.60077e-05
2.2712e-11
3.12795e-11
4.24289e-11
4.78223e-11
4.43904e-11
5.04625e-11
1.59785e-05
0.00144025
0.00103677
1.36897e-05
2.47268e-15
3.62076e-15
7.10417e-15
1.09722e-14
7.00386e-15
1.64601e-14
1.30897e-05
0.00102156
0.000786886
2.68161e-05
5.10291e-15
9.20428e-16
1.16247e-15
1.76097e-15
1.13202e-15
5.55015e-15
2.00601e-05
0.000780003
0.000628538
6.12692e-05
1.27585e-12
3.58046e-15
8.21122e-15
7.15152e-15
7.1169e-15
1.61064e-14
6.32958e-05
0.000627896
0.000522534
0.000122533
1.00512e-10
2.5886e-13
1.67797e-13
1.81397e-13
1.97383e-13
4.45292e-13
7.11002e-05
0.000524375
0.000447024
6.26594e-05
2.74114e-08
1.51281e-11
9.02651e-12
3.5456e-11
6.68163e-11
8.2091e-11
7.45656e-05
0.000450327
0.000391926
6.2714e-05
5.93786e-07
1.93592e-09
1.52712e-09
6.05634e-10
5.34686e-08
3.16976e-08
7.93097e-05
0.000395031
0.000350638
8.4965e-05
1.77526e-07
6.27557e-08
1.48738e-07
1.1324e-08
2.77884e-07
3.0199e-07
7.16806e-05
0.000352942
0.000315764
3.83736e-05
4.27166e-06
1.51538e-06
5.4639e-07
1.48568e-07
9.44329e-10
5.40234e-07
5.59909e-05
0.000319661
0.000289323
6.23627e-05
1.04733e-06
2.99776e-07
2.18897e-07
5.79293e-07
2.83283e-07
2.84275e-07
7.66186e-05
0.000293224
0.000268219
5.65405e-05
1.14113e-06
7.94133e-07
4.05788e-07
8.9027e-07
2.79465e-07
3.58241e-07
3.23767e-05
0.000270176
0.000250509
5.66711e-05
9.7497e-07
7.68685e-07
6.74011e-07
4.56466e-07
2.47984e-07
6.5101e-07
4.38424e-05
0.000252358
0.000235453
4.95273e-05
2.1003e-06
6.89132e-07
6.23282e-07
6.14226e-07
3.26067e-07
7.76131e-07
3.8163e-05
0.000237715
0.000222752
5.75011e-05
2.35587e-06
1.19445e-06
1.0454e-06
2.54848e-07
5.74363e-07
8.50991e-07
3.77996e-05
0.000225425
0.000211248
5.17269e-05
2.54391e-06
1.30029e-06
8.72487e-07
3.79169e-07
8.88749e-07
9.07985e-07
3.31334e-05
0.000214623
0.000201093
5.12881e-05
2.69219e-06
1.12934e-06
1.25769e-06
4.53324e-07
9.36671e-07
1.00901e-06
3.26401e-05
0.000205492
0.000191942
5.44442e-05
3.16458e-06
1.20692e-06
1.08918e-06
6.22191e-07
1.18846e-06
1.11208e-06
3.01474e-05
0.000197033
0.000183517
5.71036e-05
4.26204e-06
1.4838e-06
1.11447e-06
7.74283e-07
1.1937e-06
1.26606e-06
2.77165e-05
0.000190081
0.000175567
6.44108e-05
5.52552e-06
1.68549e-06
1.31984e-06
9.88111e-07
1.3474e-06
1.53413e-06
2.73854e-05
0.000183115
0.000167915
6.88802e-05
7.85439e-06
2.15626e-06
1.42473e-06
1.10452e-06
1.47289e-06
1.73272e-06
2.67952e-05
0.000177751
0.00016028
8.08979e-05
1.027e-05
2.36656e-06
1.76027e-06
1.36402e-06
1.69729e-06
2.02786e-06
2.90158e-05
0.000171692
0.000152519
8.98933e-05
1.55453e-05
3.6792e-06
2.14674e-06
1.60883e-06
1.80323e-06
2.26749e-06
2.8795e-05
0.000167583
0.000144336
0.000108915
2.0787e-05
4.75431e-06
2.64602e-06
2.06724e-06
2.17386e-06
2.62358e-06
2.82442e-05
0.000161974
0.000135635
0.000124558
3.48861e-05
7.83962e-06
3.41455e-06
2.52509e-06
2.55558e-06
2.9541e-06
2.77888e-05
0.000158405
0.000126029
0.0001364
5.34154e-05
1.14624e-05
4.97219e-06
3.43495e-06
3.36777e-06
3.59075e-06
2.37919e-05
0.000152371
0.00011512
0.000153681
8.46773e-05
2.16477e-05
7.31796e-06
4.53966e-06
4.3016e-06
4.33737e-06
2.27365e-05
0.000147109
0.000103518
0.000170258
0.000117955
3.695e-05
1.35475e-05
7.15997e-06
5.84226e-06
5.89558e-06
1.75915e-05
0.000140026
9.40224e-05
0.000193015
0.000163065
7.60305e-05
2.65913e-05
1.10883e-05
7.91438e-06
7.34663e-06
1.75264e-05
0.000126307
0.00370811
2.02727e-05
1.57126e-05
1.5713e-05
1.57156e-05
1.57156e-05
1.5713e-05
1.57126e-05
2.02546e-05
0.00369379
0.00224056
3.0724e-06
1.26985e-06
1.24062e-06
1.24006e-06
1.23956e-06
1.23896e-06
1.26884e-06
3.10295e-06
0.00219607
0.00145716
1.61961e-05
4.13437e-11
1.8726e-11
3.53552e-11
3.59007e-11
3.03707e-11
4.69697e-11
1.59829e-05
0.00143565
0.00103283
1.47566e-05
5.84624e-15
1.98038e-16
1.04978e-14
1.5151e-14
1.07199e-14
1.23344e-14
1.44569e-05
0.00101821
0.000783384
3.32923e-05
1.04461e-15
5.77646e-22
3.92306e-18
2.14347e-17
1.30027e-18
1.18359e-15
2.54808e-05
0.000776422
0.000625792
9.46944e-05
8.19911e-15
8.39046e-21
4.20266e-22
1.35052e-19
5.04052e-22
1.40949e-15
7.03164e-05
0.000624253
0.000519448
7.28708e-05
3.23118e-13
2.72805e-18
4.09133e-22
5.49197e-19
1.44308e-21
5.12434e-14
7.82423e-05
0.000521152
0.00044495
8.77542e-05
1.32683e-10
7.45696e-15
4.06568e-20
2.03738e-17
3.72191e-20
2.12778e-12
6.42359e-05
0.000447235
0.000390366
7.78058e-05
6.57551e-09
3.77439e-11
1.48138e-18
9.23176e-16
1.75993e-16
7.66878e-11
3.61664e-05
0.000392573
0.000347778
7.12529e-05
2.13666e-07
1.23702e-06
8.35321e-16
8.74918e-13
1.86197e-13
1.00142e-09
4.42607e-05
0.000350645
0.000315339
0.000109407
2.00003e-06
2.82966e-08
2.77611e-12
2.43057e-11
1.20099e-10
1.45535e-09
4.55242e-05
0.000318228
0.000287884
5.91862e-05
6.0424e-07
4.3454e-09
7.99453e-10
2.28589e-09
2.03006e-10
1.42448e-08
2.76424e-05
0.000291424
0.000266656
7.19978e-05
1.30974e-06
2.25262e-08
5.43318e-10
8.23952e-09
2.3372e-10
6.5307e-08
3.52301e-05
0.000270175
0.000249402
7.45311e-05
8.61384e-07
1.11384e-08
1.57925e-09
1.30216e-09
7.1683e-10
9.57422e-08
3.44584e-05
0.000253012
0.000234473
7.72796e-05
2.81994e-06
5.3072e-08
2.70412e-09
5.59153e-09
1.23632e-09
1.05602e-07
3.93622e-05
0.000238487
0.000221723
7.3834e-05
3.48979e-06
5.41576e-08
4.47094e-09
9.86655e-10
2.39073e-09
1.44919e-07
3.38598e-05
0.000226307
0.000210349
7.36522e-05
4.24963e-06
6.26709e-08
6.10478e-09
2.13629e-09
3.60071e-09
3.15089e-07
3.47081e-05
0.000215562
0.000200365
7.36159e-05
3.56794e-06
1.11546e-07
7.12668e-09
2.75055e-09
4.69281e-09
1.4526e-07
3.41779e-05
0.000206441
0.000191105
7.67084e-05
3.66537e-06
1.16837e-07
1.22392e-08
3.54396e-09
8.10948e-09
1.59696e-07
3.34972e-05
0.000198061
0.000182802
7.68967e-05
4.66117e-06
1.9616e-07
1.47573e-08
8.06826e-09
8.74249e-09
1.45107e-07
3.24765e-05
0.000191134
0.000174836
7.12633e-05
5.55707e-06
2.6769e-07
2.39156e-08
9.02669e-09
9.32474e-09
1.91667e-07
3.26977e-05
0.000184281
0.000167204
7.29987e-05
7.57196e-06
4.92497e-07
3.37528e-08
1.7355e-08
1.55394e-08
3.06276e-07
3.20022e-05
0.000179022
0.000159561
8.09365e-05
9.59338e-06
7.18111e-07
6.72017e-08
2.29367e-08
1.54657e-08
2.87535e-07
3.10217e-05
0.000173099
0.000151905
8.78648e-05
1.44172e-05
1.33644e-06
1.15479e-07
2.99838e-08
4.01912e-08
2.79429e-07
2.99803e-05
0.000168986
0.000143898
0.000104459
1.87561e-05
2.22986e-06
2.98506e-07
4.69159e-08
2.60867e-08
3.31886e-07
2.69804e-05
0.000163416
0.000135481
0.000118616
2.93287e-05
4.29835e-06
4.79636e-07
1.00039e-07
1.15432e-07
3.41952e-07
2.47013e-05
0.000159183
0.000126412
0.000129777
4.7403e-05
7.50838e-06
1.20518e-06
1.69894e-07
4.96502e-08
3.25334e-07
2.02368e-05
0.000153695
0.000116312
0.000140786
7.19107e-05
1.43214e-05
2.27478e-06
4.46899e-07
2.4432e-07
2.67634e-07
1.69552e-05
0.000149082
0.000105369
0.000157099
9.7933e-05
2.75719e-05
5.67524e-06
1.02215e-06
1.65763e-07
3.2161e-07
1.17731e-05
0.00013751
9.31927e-05
0.000169148
0.000132164
4.38706e-05
1.19481e-05
2.93372e-06
1.02748e-06
4.24301e-07
8.56477e-06
0.000137594
0.00370776
2.02789e-05
1.57151e-05
1.57156e-05
1.57179e-05
1.57181e-05
1.57153e-05
1.57149e-05
2.02608e-05
0.00369343
0.00223909
3.06412e-06
1.26995e-06
1.23996e-06
1.23106e-06
1.25031e-06
1.2312e-06
1.2638e-06
3.09685e-06
0.00219464
0.00145505
1.64087e-05
4.65845e-11
3.62027e-11
2.64404e-11
1.59144e-11
2.31823e-11
4.0293e-11
1.62103e-05
0.00143375
0.00103081
1.56769e-05
9.10784e-15
1.29762e-14
9.37541e-15
1.97791e-13
5.08468e-15
8.81455e-15
1.53318e-05
0.00101664
0.000781525
4.08387e-05
1.46125e-15
1.06013e-19
1.69833e-19
1.58659e-21
7.82688e-18
1.38939e-15
3.21694e-05
0.000774848
0.000623842
9.89553e-05
9.38987e-15
4.85758e-23
1.06375e-23
2.06223e-20
5.53559e-21
3.74888e-15
8.86413e-05
0.000622708
0.000517536
7.92309e-05
1.57562e-13
7.90696e-22
3.42197e-20
4.16687e-20
1.30044e-20
6.63958e-14
7.36557e-05
0.000519454
0.000443129
6.49862e-05
1.61262e-10
2.46819e-19
1.50382e-19
7.52145e-20
1.16106e-20
1.70625e-11
8.94979e-05
0.000445481
0.000388146
7.81177e-05
2.83521e-09
8.6782e-16
6.99704e-19
1.552e-18
5.28346e-18
1.11568e-09
7.93157e-05
0.000391163
0.000346709
6.6121e-05
8.52903e-08
4.15752e-11
3.44024e-16
3.67993e-16
9.17496e-14
2.04813e-08
5.08127e-05
0.000349157
0.00031392
9.14861e-05
6.04527e-07
7.83909e-09
8.43298e-12
3.29873e-14
3.06829e-15
1.41344e-07
6.06059e-05
0.000316306
0.000284175
5.15774e-05
1.03087e-06
6.30289e-08
9.21687e-12
8.14818e-13
4.3469e-11
6.19475e-07
4.03107e-05
0.000289081
0.000264155
6.68613e-05
1.24395e-06
3.77056e-09
9.41178e-12
9.62375e-12
9.86197e-12
2.18316e-07
4.44045e-05
0.000268347
0.000247523
7.08204e-05
8.11807e-07
5.87687e-09
1.9052e-11
2.89752e-12
1.20517e-11
1.7501e-06
4.89596e-05
0.000251476
0.000233196
6.52814e-05
1.18532e-06
1.37747e-08
1.43527e-10
2.78422e-12
6.66509e-11
5.33368e-07
4.33241e-05
0.000237203
0.000220438
6.03079e-05
1.59205e-06
2.25899e-08
2.9327e-10
3.32482e-12
8.17417e-11
4.1063e-07
4.27618e-05
0.000225143
0.00020965
7.18701e-05
2.0684e-06
3.77122e-08
1.41342e-10
9.75595e-12
3.09939e-10
3.27862e-07
3.932e-05
0.000214487
0.000199414
6.5902e-05
2.6563e-06
7.3699e-08
3.80045e-09
2.48935e-13
2.21982e-10
2.64808e-07
3.67337e-05
0.000205421
0.000190513
7.93881e-05
3.46609e-06
9.68922e-08
1.48323e-09
3.39628e-11
1.66189e-10
3.16316e-07
3.54314e-05
0.000196995
0.000182276
7.89289e-05
4.86017e-06
2.24913e-07
1.37534e-08
2.64731e-10
2.77502e-10
3.36759e-07
3.45698e-05
0.000190172
0.000174592
8.32899e-05
6.20821e-06
3.23734e-07
2.17381e-08
2.82967e-10
5.69503e-10
4.20924e-07
3.29655e-05
0.000183329
0.000167025
7.56105e-05
8.14483e-06
6.08644e-07
4.81277e-08
1.64489e-09
7.64666e-10
4.42405e-07
3.20312e-05
0.000178172
0.000159439
7.95601e-05
9.76464e-06
8.62857e-07
6.07499e-08
4.75521e-09
8.22887e-10
4.30491e-07
2.97451e-05
0.000172151
0.000151869
8.78157e-05
1.405e-05
1.39757e-06
1.49149e-07
8.50135e-09
5.88773e-10
3.95527e-07
2.81266e-05
0.000168132
0.000143926
9.85875e-05
1.75379e-05
2.12295e-06
2.12026e-07
3.21916e-08
2.52719e-09
3.48079e-07
2.48759e-05
0.000162188
0.000135468
0.000114784
2.631e-05
3.46274e-06
5.44264e-07
4.66201e-08
8.03597e-09
2.99161e-07
2.24075e-05
0.000158466
0.000126277
0.000126051
4.34218e-05
6.90138e-06
8.83012e-07
1.56252e-07
2.26582e-08
2.21928e-07
1.81932e-05
0.000152505
0.000115827
0.000136684
6.77181e-05
1.24166e-05
2.3228e-06
2.89477e-07
1.20699e-08
2.03378e-07
1.5118e-05
0.000144596
0.000104194
0.000152835
9.34611e-05
2.49123e-05
4.71682e-06
9.60924e-07
5.47945e-07
1.67085e-07
1.03287e-05
0.000139488
9.03402e-05
0.000164811
0.000127071
4.20953e-05
1.10797e-05
2.51954e-06
4.02283e-07
2.34947e-07
7.58795e-06
0.000116311
0.00370773
2.0279e-05
1.57149e-05
1.57153e-05
1.5718e-05
1.57172e-05
1.57153e-05
1.57149e-05
2.02608e-05
0.00369346
0.00223911
3.06221e-06
1.26175e-06
1.24415e-06
1.25368e-06
1.21457e-06
1.2392e-06
1.26937e-06
3.0948e-06
0.0021947
0.0014551
1.64199e-05
3.07689e-11
1.92471e-11
2.5604e-11
2.31033e-11
3.4811e-11
4.648e-11
1.62901e-05
0.00143389
0.00103095
1.60919e-05
3.89968e-15
1.66433e-16
2.02918e-15
9.84512e-15
1.16692e-14
7.75783e-15
1.53641e-05
0.00101695
0.000781685
4.35518e-05
9.93095e-16
1.98548e-20
1.79519e-18
2.23629e-17
6.27682e-18
1.04158e-15
3.31689e-05
0.000775168
0.000623865
9.70804e-05
1.79299e-14
1.69663e-21
2.11936e-19
3.37892e-21
7.81748e-23
2.66172e-15
9.26137e-05
0.000622951
0.000517604
8.14004e-05
2.53035e-12
3.89191e-18
4.604e-18
1.18393e-22
1.01244e-22
1.13787e-14
8.98608e-05
0.000519596
0.000443035
5.20132e-05
2.7126e-10
3.48645e-09
2.0118e-19
1.11561e-21
1.22843e-22
3.24273e-13
5.89683e-05
0.00044562
0.000387881
3.52367e-05
5.69975e-08
4.43888e-10
2.15902e-16
2.8887e-21
1.46591e-19
4.9074e-12
3.45877e-05
0.000390745
0.000346237
4.67859e-05
1.3264e-07
5.47352e-10
1.4827e-14
1.85388e-21
1.10184e-19
3.00473e-11
4.33809e-05
0.000349494
0.000313319
3.22433e-05
2.14946e-06
4.33762e-08
2.06612e-12
2.92169e-20
1.03912e-19
4.58799e-10
6.97e-05
0.00031609
0.00028602
4.44074e-05
2.52428e-07
2.46221e-09
5.82197e-11
1.46334e-21
6.95316e-19
1.07477e-08
4.7474e-05
0.000289638
0.000265107
5.84935e-05
5.98231e-07
4.62468e-09
4.66274e-12
2.49609e-21
5.95675e-19
6.21046e-09
5.8269e-05
0.000268639
0.000248114
5.51494e-05
9.22023e-07
9.63791e-09
4.65764e-11
4.68322e-21
1.14185e-18
1.05095e-08
5.11051e-05
0.000251659
0.000233625
6.48045e-05
1.22248e-06
8.37325e-09
1.30366e-12
7.42859e-16
5.0441e-18
2.17541e-08
4.18736e-05
0.000237422
0.000220878
6.30935e-05
1.60355e-06
2.72915e-08
1.55093e-09
1.01046e-13
1.04734e-17
3.83772e-08
3.55674e-05
0.000225345
0.000209558
5.87645e-05
1.95415e-06
2.96251e-08
6.84766e-11
4.45546e-16
3.31033e-17
8.48155e-08
3.28132e-05
0.000214563
0.000199462
5.96136e-05
2.85745e-06
6.3264e-08
4.60555e-09
3.90786e-13
2.50101e-17
1.41572e-07
3.1838e-05
0.000205404
0.000190368
6.33168e-05
3.36605e-06
1.05797e-07
8.73993e-10
2.43702e-11
1.1035e-16
1.24552e-07
3.06094e-05
0.000196912
0.000182067
6.77914e-05
5.12054e-06
1.86792e-07
1.10128e-08
2.12555e-11
1.35244e-16
2.08643e-07
3.1833e-05
0.00019012
0.000174261
7.39618e-05
6.37916e-06
3.2032e-07
8.57447e-09
1.26128e-09
5.87144e-16
2.09877e-07
3.25499e-05
0.000183312
0.000166804
7.99752e-05
9.26362e-06
5.7255e-07
7.69192e-08
4.20137e-10
1.33051e-15
3.37227e-07
3.2082e-05
0.000178326
0.000159398
8.83515e-05
1.13576e-05
9.06883e-07
3.5378e-08
1.99219e-10
7.15563e-15
3.96581e-07
3.00812e-05
0.000172322
0.000151965
9.69098e-05
1.64163e-05
1.54379e-06
2.62163e-07
1.84143e-08
7.71967e-14
2.34938e-07
2.83322e-05
0.000168372
0.000144186
0.000106605
2.05661e-05
2.59734e-06
1.68991e-07
3.4642e-09
3.70559e-12
2.27579e-07
2.49288e-05
0.000162546
0.000135851
0.000118647
2.77988e-05
3.71223e-06
8.35091e-07
2.17488e-07
2.12601e-09
1.83248e-07
2.23185e-05
0.000158507
0.00012672
0.000128178
4.72554e-05
7.90905e-06
7.48942e-07
6.65384e-08
3.99113e-09
1.6224e-07
1.78216e-05
0.000153267
0.000116345
0.000137563
6.68615e-05
1.34837e-05
2.82744e-06
6.94845e-07
1.14405e-07
9.52954e-08
1.49207e-05
0.000142647
0.000104676
0.000152529
9.41487e-05
2.38013e-05
4.04633e-06
5.9245e-07
5.54719e-08
1.31314e-07
9.68178e-06
0.000142084
9.08761e-05
0.000164751
0.000126119
4.29183e-05
1.11813e-05
3.05911e-06
7.59549e-07
1.94645e-07
7.34482e-06
0.000109632
0.003708
2.02727e-05
1.57127e-05
1.57128e-05
1.57149e-05
1.57152e-05
1.57131e-05
1.57124e-05
2.02545e-05
0.00369383
0.00224054
3.06768e-06
1.26954e-06
1.24212e-06
1.21671e-06
1.23378e-06
1.24189e-06
1.26774e-06
3.0989e-06
0.0021962
0.00145734
1.60941e-05
4.43608e-11
3.55588e-11
2.29631e-11
2.74447e-11
3.55121e-11
3.91446e-11
1.60859e-05
0.00143615
0.00103356
1.60406e-05
1.10885e-14
1.19107e-14
7.43669e-15
9.3874e-15
1.16409e-14
4.55184e-15
1.49597e-05
0.00101957
0.000784246
4.38004e-05
2.18763e-15
4.82128e-19
8.91071e-21
2.39896e-20
5.48845e-19
7.38279e-16
3.17255e-05
0.000777926
0.000626061
9.18259e-05
4.31753e-15
1.20545e-22
6.28813e-22
2.66371e-23
2.0261e-23
2.4366e-15
8.37531e-05
0.000625301
0.00051965
7.81592e-05
2.92056e-13
3.11417e-21
5.10601e-19
3.18672e-20
4.33494e-20
2.20911e-14
6.99058e-05
0.00052159
0.000444763
5.40021e-05
5.8449e-12
2.82557e-18
5.71809e-18
1.24027e-19
8.35402e-20
2.44112e-13
9.09639e-05
0.000447361
0.000389533
3.14405e-05
1.38068e-09
2.3831e-16
2.12548e-16
1.39606e-18
4.49794e-19
5.30032e-12
7.72887e-05
0.000392762
0.000348321
6.22138e-05
1.55243e-07
1.07202e-11
1.1209e-15
1.39077e-17
6.2864e-19
3.24159e-11
4.0161e-05
0.000350806
0.000313808
3.00192e-05
4.63466e-07
1.27452e-09
6.83744e-14
5.1271e-17
1.43451e-18
4.54113e-10
7.98316e-05
0.000318213
0.000287464
4.70553e-05
2.66757e-07
4.67847e-10
3.37782e-13
2.65551e-16
3.23935e-18
1.84508e-08
4.03361e-05
0.000291287
0.000266505
5.87998e-05
4.18726e-07
2.79147e-09
7.08542e-11
1.54063e-13
1.13322e-17
2.84432e-08
4.93118e-05
0.000270144
0.000249377
5.79883e-05
7.64375e-07
2.25958e-09
8.42125e-11
3.6561e-13
7.90754e-17
2.07952e-08
4.95474e-05
0.000252985
0.000234465
4.95237e-05
8.99157e-07
6.75231e-09
1.6566e-10
2.46583e-11
4.01156e-16
2.37651e-08
4.2318e-05
0.000238564
0.000221714
5.75491e-05
1.46041e-06
1.30271e-08
1.56011e-09
9.3109e-11
7.78679e-15
1.34536e-07
3.593e-05
0.000226406
0.000210309
5.46588e-05
1.88061e-06
2.1479e-08
4.13916e-10
2.9734e-10
4.78172e-14
2.02621e-07
3.3055e-05
0.000215611
0.000200154
5.41438e-05
2.72909e-06
5.0907e-08
5.19481e-09
6.12853e-10
7.70698e-13
1.37326e-07
3.18773e-05
0.000206441
0.000190984
5.87766e-05
3.38102e-06
8.18697e-08
4.96587e-09
1.05056e-09
2.14068e-11
1.54903e-07
3.15167e-05
0.00019802
0.000182576
6.19875e-05
4.75196e-06
1.5654e-07
1.04451e-08
3.84398e-09
2.32785e-11
1.72516e-07
3.12091e-05
0.000191128
0.000174665
6.98397e-05
5.99561e-06
2.52665e-07
1.11132e-08
4.64016e-09
5.70074e-09
1.98802e-07
3.08009e-05
0.000184317
0.000167086
7.50778e-05
8.58614e-06
5.1894e-07
4.70755e-08
3.79615e-09
4.09661e-09
3.01884e-07
3.00538e-05
0.000179045
0.000159605
8.53947e-05
1.08025e-05
8.14679e-07
5.55584e-08
1.41244e-08
7.02954e-09
2.68802e-07
2.89857e-05
0.000173082
0.000152093
9.33081e-05
1.57764e-05
1.49838e-06
2.48658e-07
2.04659e-08
9.84081e-09
2.60925e-07
2.73077e-05
0.000168969
0.00014425
0.00010632
1.96252e-05
2.51388e-06
1.80222e-07
7.04544e-08
2.96841e-08
2.92794e-07
2.49743e-05
0.000162948
0.000135959
0.000119624
3.03134e-05
3.90737e-06
8.96157e-07
6.584e-08
2.92598e-08
3.04372e-07
2.22691e-05
0.00015963
0.000126984
0.000129084
4.76061e-05
8.06211e-06
7.95734e-07
3.0962e-07
1.61798e-07
2.65828e-07
1.83973e-05
0.000152638
0.000116987
0.000139768
6.849e-05
1.43302e-05
3.24744e-06
3.39926e-07
8.55085e-08
3.05415e-07
1.47775e-05
0.000147359
0.000106075
0.000154741
9.63712e-05
2.48657e-05
4.37862e-06
1.52086e-06
5.73392e-07
3.60524e-07
1.053e-05
0.000137575
9.38895e-05
0.000168258
0.000129238
4.46425e-05
1.26781e-05
2.47084e-06
6.47402e-07
5.19979e-07
8.12665e-06
0.00012786
0.00370946
2.02819e-05
1.57124e-05
1.57126e-05
1.5715e-05
1.5715e-05
1.57126e-05
1.57118e-05
2.0264e-05
0.00369558
0.00224419
3.046e-06
1.28051e-06
1.27114e-06
1.26764e-06
1.26885e-06
1.27183e-06
1.27405e-06
3.07892e-06
0.00220003
0.00146295
1.5948e-05
4.33597e-11
4.4616e-11
4.6758e-11
4.55009e-11
4.89808e-11
2.42794e-11
1.60132e-05
0.00144106
0.00103996
1.67695e-05
2.2454e-14
6.75922e-15
1.10582e-14
8.34073e-15
9.13078e-15
2.43667e-15
1.53646e-05
0.00102517
0.000790698
4.90218e-05
8.62342e-15
9.87972e-16
1.97834e-15
1.55399e-15
1.57667e-15
4.63113e-15
3.74909e-05
0.000784464
0.000631447
0.00010712
4.94561e-14
2.49731e-15
2.06725e-15
1.61678e-15
1.59155e-15
1.17439e-12
8.28075e-05
0.000631092
0.000523358
7.41708e-05
1.24765e-12
7.93828e-15
9.05527e-15
1.49055e-14
1.07122e-14
6.01508e-11
6.44578e-05
0.00052588
0.000448116
8.14998e-05
8.57339e-11
2.23305e-13
1.92585e-13
2.36514e-13
1.38359e-13
2.0784e-08
8.25816e-05
0.000450492
0.000392055
6.98712e-05
2.15737e-08
5.55189e-12
3.55073e-12
4.81286e-12
3.76357e-12
2.44268e-07
7.3716e-05
0.000395091
0.000348743
4.52292e-05
7.05214e-07
3.22428e-11
4.04016e-11
1.75354e-10
6.80286e-11
6.46051e-07
4.9483e-05
0.000352267
0.00031591
4.84459e-05
1.19871e-06
6.78015e-11
4.37151e-10
5.11565e-10
2.48585e-09
7.87767e-07
5.79247e-05
0.000318155
0.000289941
3.6832e-05
6.18929e-07
1.21385e-09
1.31547e-08
9.44193e-10
1.7062e-08
6.8545e-07
4.50853e-05
0.000291083
0.00026878
4.09049e-05
9.59458e-07
5.44848e-09
1.02458e-07
4.39019e-09
3.10817e-08
8.21974e-07
3.99472e-05
0.000269507
0.000250838
4.3716e-05
1.16203e-06
4.34038e-08
1.96643e-07
1.38869e-08
8.55261e-08
8.76842e-07
4.25041e-05
0.000252392
0.00023555
4.57834e-05
1.21161e-06
1.50631e-07
2.90306e-07
7.19041e-08
3.17162e-07
8.93321e-07
4.14959e-05
0.000237901
0.000222704
4.98481e-05
1.69578e-06
3.36058e-07
3.339e-07
1.71724e-07
3.36093e-07
7.18162e-07
3.78034e-05
0.000225625
0.000211136
5.03332e-05
2.06527e-06
9.07874e-07
5.77104e-07
2.1803e-07
5.10028e-07
9.83729e-07
3.67785e-05
0.000214741
0.000201028
5.33537e-05
3.10453e-06
3.51031e-07
9.40114e-07
6.14218e-07
3.78506e-07
1.07235e-06
3.7401e-05
0.000205542
0.000191857
5.69971e-05
3.73347e-06
6.81834e-07
4.06448e-07
4.44831e-07
4.68927e-07
1.14313e-06
3.70513e-05
0.000197083
0.000183449
6.68727e-05
5.58174e-06
6.43764e-07
7.11474e-07
8.88753e-07
6.0944e-07
1.39052e-06
3.71603e-05
0.00019021
0.000175546
7.44998e-05
7.00321e-06
1.22337e-06
5.4286e-07
6.27481e-07
6.97767e-07
1.5736e-06
3.64728e-05
0.000183338
0.000167858
8.63787e-05
1.0295e-05
1.5164e-06
8.03361e-07
8.83895e-07
8.30375e-07
1.64159e-06
3.65519e-05
0.000178151
0.000160476
9.69441e-05
1.33539e-05
2.20935e-06
1.24515e-06
9.40533e-07
1.09397e-06
1.9173e-06
3.49062e-05
0.000172175
0.000152871
0.000103979
1.88342e-05
3.06749e-06
1.85766e-06
1.5501e-06
1.44119e-06
2.08698e-06
3.42706e-05
0.000168097
0.000145002
0.000121112
2.49436e-05
5.3074e-06
2.51356e-06
2.11828e-06
2.02586e-06
2.54386e-06
3.13951e-05
0.000162485
0.000136409
0.000130353
3.58383e-05
7.55055e-06
3.61623e-06
2.92737e-06
2.72008e-06
2.70655e-06
2.98615e-05
0.000158816
0.000127047
0.000142389
6.01754e-05
1.40904e-05
4.71834e-06
3.75577e-06
3.57586e-06
3.82798e-06
2.55612e-05
0.000153085
0.000116354
0.00015576
8.49184e-05
2.21492e-05
8.33288e-06
5.3181e-06
4.86217e-06
4.74188e-06
2.38172e-05
0.000147001
0.00010501
0.000174443
0.000124398
4.07745e-05
1.31218e-05
7.78934e-06
6.78087e-06
6.66621e-06
1.90418e-05
0.000141383
9.54286e-05
0.000193469
0.000162562
7.47153e-05
2.6542e-05
1.32695e-05
9.55831e-06
8.86979e-06
1.93518e-05
0.000124055
0.00371869
2.62847e-05
2.02645e-05
2.02559e-05
2.02621e-05
2.0262e-05
2.02557e-05
2.02652e-05
2.62659e-05
0.00370568
0.00224291
3.03089e-06
3.10019e-06
3.10456e-06
3.09661e-06
3.09415e-06
3.09828e-06
3.07865e-06
3.05467e-06
0.00220066
0.00146533
4.61466e-05
1.61343e-05
1.61822e-05
1.64434e-05
1.63589e-05
1.61991e-05
1.60804e-05
4.72942e-05
0.00143884
0.00104071
0.000203126
1.32355e-05
1.45666e-05
1.52979e-05
1.59046e-05
1.52771e-05
1.58469e-05
0.000197762
0.00102123
0.000790918
0.000315186
2.20228e-05
2.80977e-05
3.31749e-05
3.65935e-05
3.42284e-05
4.01361e-05
0.000271582
0.000782894
0.000630139
0.0002453
7.31435e-05
7.19132e-05
9.37327e-05
7.58965e-05
7.01821e-05
7.94744e-05