/*--------------------------------*- C++ -*----------------------------------*\
| =========                 |                                                 |
| \\      /  F ield         | OpenFOAM: The Open Source CFD Toolbox           |
|  \\    /   O peration     | Version:  4.1                                   |
|   \\  /    A nd           | Web:      www.OpenFOAM.org                      |
|    \\/     M anipulation  |                                                 |
\*---------------------------------------------------------------------------*/
FoamFile
{
    version     2.0;
    format      ascii;
    class       volScalarField;
    location    "300";
    object      p;
}
// * * * * * * * * * * * * * * * * * * * * * * * * * * * * * * * * * * * * * //

dimensions      [0 2 -2 0 0 0 0];

internalField   nonuniform List<scalar> 
12000
(
0.0761492
0.0764278
0.0760918
0.0759714
0.0759337
0.0759322
0.0759669
0.0760846
0.0764182
0.076136
0.0755833
0.0755668
0.0755049
0.0755076
0.0754942
0.0754925
0.0755028
0.0754973
0.0755566
0.07557
0.0754649
0.0752277
0.07529
0.0753385
0.0753405
0.0753386
0.075333
0.0752812
0.0752159
0.07545
0.075436
0.0751716
0.0752559
0.075284
0.0752839
0.0752816
0.0752772
0.0752452
0.0751574
0.0754182
0.0753388
0.0751188
0.0752045
0.0752076
0.0752048
0.075202
0.0751991
0.0751912
0.0751014
0.0753172
0.0752157
0.0750403
0.0751227
0.0751124
0.0751117
0.0751081
0.0751015
0.0751056
0.0750179
0.0751883
0.0751137
0.0749714
0.0750461
0.0750278
0.07503
0.0750254
0.075014
0.0750243
0.0749426
0.0750786
0.0750383
0.0749217
0.0749865
0.0749617
0.0749649
0.0749591
0.0749438
0.0749585
0.0748853
0.0749936
0.0749788
0.0748828
0.0749377
0.074908
0.0749108
0.0749036
0.0748849
0.0749017
0.0748365
0.0749217
0.0749286
0.0748482
0.0748943
0.0748615
0.0748629
0.0748537
0.0748319
0.0748479
0.0747882
0.0748552
0.0748868
0.0748173
0.0748556
0.0748206
0.0748195
0.0748074
0.0747822
0.0747956
0.0747398
0.0747925
0.0748542
0.0747923
0.0748222
0.0747848
0.0747801
0.0747641
0.0747353
0.0747443
0.0746913
0.074733
0.0748307
0.0747737
0.0747944
0.074754
0.074744
0.074723
0.0746901
0.0746933
0.0746414
0.0746746
0.0748162
0.0747599
0.0747724
0.0747278
0.0747103
0.0746829
0.0746444
0.074641
0.0745891
0.0746148
0.074813
0.0747548
0.0747573
0.0747058
0.0746788
0.0746431
0.0745972
0.0745857
0.0745319
0.0745508
0.0748223
0.0747605
0.0747501
0.0746885
0.0746494
0.074603
0.0745472
0.0745255
0.0744677
0.07448
0.0748446
0.0747772
0.0747511
0.0746764
0.074622
0.0745616
0.0744928
0.0744583
0.0743939
0.0743991
0.0748812
0.0748064
0.0747613
0.0746699
0.0745964
0.0745179
0.0744321
0.0743812
0.0743071
0.0743042
0.0749353
0.0748513
0.0747824
0.0746697
0.0745721
0.0744704
0.0743624
0.0742907
0.0742026
0.0741901
0.07501
0.0749158
0.0748167
0.0746767
0.0745486
0.0744171
0.0742804
0.0741817
0.0740741
0.0740497
0.0751065
0.0750032
0.0748665
0.0746917
0.0745257
0.0743562
0.0741819
0.0740478
0.073913
0.0738733
0.0752229
0.0751144
0.0749336
0.0747159
0.0745033
0.0742855
0.0740618
0.0738801
0.0737073
0.0736467
0.0753526
0.0752466
0.0750191
0.0747507
0.0744816
0.0742028
0.0739136
0.0736667
0.0734393
0.0733488
0.0754828
0.0753901
0.0751233
0.0747989
0.0744624
0.0741061
0.0737296
0.073391
0.0730823
0.0729461
0.0755949
0.0755262
0.0752443
0.0748655
0.0744495
0.0739947
0.0735002
0.0730294
0.0725943
0.0723824
0.0756711
0.0756331
0.0753793
0.0749597
0.0744506
0.0738692
0.0732136
0.0725474
0.0719053
0.0715566
0.0757078
0.0756994
0.0755234
0.0750895
0.0744762
0.073734
0.0728574
0.0718967
0.0708965
0.0702558
0.0757335
0.0757655
0.0756778
0.0752489
0.0745285
0.0735887
0.0724082
0.0709942
0.0693615
0.068013
0.0757448
0.0758087
0.075766
0.0753636
0.074574
0.0734303
0.0718641
0.0697455
0.0670027
0.0634141
0.0757134
0.0757606
0.0756653
0.0752612
0.0744601
0.073132
0.0710996
0.0678147
0.0634387
0.0527718
0.0764293
0.0764624
0.0761327
0.0760148
0.0759748
0.0759732
0.0760103
0.0761258
0.0764533
0.0764153
0.0755682
0.0755176
0.0754828
0.0754898
0.0754746
0.075473
0.075485
0.0754753
0.0755076
0.0755547
0.0752293
0.0750094
0.0750946
0.07515
0.0751509
0.0751491
0.0751445
0.075086
0.0749978
0.0752142
0.0751738
0.0749134
0.0750142
0.0750422
0.0750405
0.0750382
0.0750356
0.0750038
0.0748993
0.0751557
0.0751215
0.0748974
0.0750005
0.0749966
0.0749925
0.0749897
0.0749883
0.0749874
0.0748796
0.0750995
0.0750439
0.0748595
0.0749608
0.074941
0.0749414
0.0749379
0.0749305
0.0749444
0.0748373
0.0750156
0.074976
0.0748219
0.074914
0.0748853
0.074891
0.0748866
0.0748718
0.0748931
0.0747935
0.0749398
0.0749275
0.0747978
0.0748777
0.0748421
0.0748502
0.0748446
0.0748247
0.0748506
0.0747612
0.0748817
0.0748901
0.0747808
0.0748489
0.0748088
0.0748169
0.0748096
0.0747862
0.0748136
0.0747335
0.0748316
0.0748574
0.0747647
0.074822
0.0747794
0.0747862
0.0747768
0.0747501
0.0747764
0.0747038
0.0747817
0.074829
0.074749
0.0747965
0.0747521
0.074756
0.0747439
0.074714
0.0747369
0.0746703
0.0747316
0.0748072
0.0747359
0.0747731
0.0747271
0.0747267
0.074711
0.0746774
0.0746957
0.0746339
0.0746813
0.0747927
0.0747275
0.0747537
0.0747053
0.0746987
0.0746782
0.0746403
0.0746528
0.074594
0.0746296
0.0747839
0.0747234
0.07474
0.0746869
0.074672
0.0746451
0.0746018
0.0746069
0.0745492
0.0745752
0.0747851
0.0747251
0.0747306
0.0746713
0.0746462
0.0746112
0.0745607
0.0745566
0.074498
0.0745158
0.0747982
0.0747349
0.0747264
0.0746585
0.0746212
0.0745757
0.0745158
0.0745004
0.0744381
0.0744487
0.0748234
0.0747543
0.0747291
0.0746497
0.074597
0.0745377
0.0744653
0.0744359
0.0743673
0.0743703
0.0748618
0.074785
0.0747403
0.0746454
0.0745731
0.0744959
0.0744072
0.0743605
0.0742821
0.0742767
0.0749159
0.07483
0.0747614
0.074646
0.0745492
0.0744488
0.0743387
0.0742704
0.0741777
0.0741623
0.0749883
0.0748922
0.074794
0.074652
0.0745243
0.0743943
0.0742561
0.07416
0.0740476
0.07402
0.0750803
0.074974
0.0748396
0.0746637
0.0744979
0.07433
0.0741549
0.0740224
0.0738826
0.0738392
0.0751904
0.0750766
0.0748996
0.0746818
0.0744691
0.074253
0.0740291
0.0738481
0.0736697
0.073605
0.075314
0.075198
0.0749746
0.0747071
0.0744378
0.0741603
0.0738713
0.0736239
0.0733896
0.0732945
0.0754414
0.0753328
0.0750654
0.0747415
0.0744044
0.0740488
0.0736722
0.0733314
0.0730134
0.0728717
0.0755578
0.0754692
0.0751718
0.0747887
0.0743716
0.0739166
0.0734206
0.0729442
0.0724947
0.0722751
0.0756469
0.0755902
0.0752927
0.0748554
0.0743451
0.0737634
0.0731032
0.0724248
0.0717568
0.0713948
0.075699
0.0756777
0.0754229
0.0749484
0.0743337
0.0735929
0.0727065
0.071721
0.0706688
0.0699969
0.0757214
0.0757348
0.0755504
0.0750613
0.0743403
0.0734067
0.0722098
0.0707507
0.0690088
0.0675756
0.075712
0.0757443
0.0756134
0.0751411
0.0743471
0.0732093
0.0716139
0.0694154
0.0664583
0.0625987
0.0756866
0.0756629
0.075475
0.0750228
0.0742268
0.0729186
0.0708672
0.067438
0.0627627
0.0512484
0.0760946
0.0761341
0.0758266
0.0757039
0.0756624
0.0756608
0.0756995
0.0758197
0.0761252
0.0760799
0.0755076
0.0754841
0.075455
0.075457
0.0754418
0.0754402
0.0754522
0.0754476
0.0754741
0.075494
0.0752932
0.0750961
0.0751813
0.075235
0.0752364
0.0752346
0.0752296
0.0751727
0.0750846
0.0752782
0.0752598
0.0750161
0.0751151
0.0751418
0.0751397
0.0751374
0.0751351
0.0751048
0.0750021
0.0752419
0.0752095
0.0750028
0.0751068
0.0751007
0.0750959
0.0750931
0.0750924
0.075094
0.0749853
0.0751875
0.075129
0.0749637
0.07507
0.0750484
0.0750494
0.0750459
0.0750379
0.0750538
0.0749419
0.0751013
0.0750542
0.0749177
0.0750168
0.0749869
0.0749947
0.0749904
0.0749735
0.0749961
0.0748898
0.0750191
0.0749968
0.0748822
0.0749696
0.0749328
0.0749437
0.0749381
0.0749154
0.0749427
0.0748461
0.0749522
0.0749506
0.0748547
0.0749304
0.0748885
0.0748996
0.0748924
0.0748659
0.0748953
0.0748077
0.0748935
0.0749104
0.0748296
0.0748943
0.0748496
0.0748594
0.0748501
0.0748201
0.0748487
0.0747689
0.0748366
0.074876
0.0748062
0.0748601
0.0748136
0.0748206
0.0748087
0.0747753
0.0748007
0.0747274
0.0747804
0.0748486
0.0747858
0.0748291
0.0747808
0.0747833
0.0747679
0.0747308
0.0747518
0.0746839
0.0747247
0.0748284
0.0747702
0.074803
0.074752
0.0747482
0.074728
0.0746867
0.0747017
0.0746379
0.0746685
0.0748162
0.0747613
0.0747825
0.0747271
0.074715
0.0746886
0.0746422
0.0746494
0.0745877
0.07461
0.0748141
0.0747584
0.0747667
0.0747055
0.0746836
0.0746491
0.0745959
0.0745935
0.0745318
0.0745467
0.0748231
0.0747627
0.0747562
0.0746873
0.0746534
0.0746084
0.0745463
0.0745321
0.074468
0.0744756
0.0748439
0.0747763
0.074753
0.0746734
0.0746241
0.0745655
0.0744914
0.0744634
0.0743935
0.0743935
0.074878
0.0748014
0.0747586
0.0746641
0.0745952
0.0745188
0.0744291
0.0743838
0.0743046
0.0742963
0.0749275
0.0748405
0.0747742
0.0746595
0.074566
0.0744666
0.0743561
0.0742889
0.0741965
0.0741783
0.0749942
0.0748957
0.0748004
0.0746595
0.0745353
0.0744066
0.0742686
0.0741738
0.0740623
0.0740319
0.0750788
0.0749687
0.0748381
0.0746639
0.0745021
0.074336
0.0741616
0.074031
0.0738925
0.0738462
0.0751794
0.0750602
0.0748881
0.0746729
0.074465
0.0742515
0.0740288
0.0738504
0.0736732
0.0736056
0.0752917
0.0751686
0.0749507
0.0746865
0.0744229
0.0741491
0.073862
0.073618
0.0733846
0.0732862
0.0754074
0.075289
0.0750257
0.0747054
0.0743755
0.0740251
0.0736509
0.0733141
0.0729961
0.0728503
0.0755159
0.0754128
0.0751124
0.0747319
0.074324
0.0738765
0.0733838
0.0729116
0.0724597
0.0722339
0.0756062
0.0755273
0.075209
0.0747702
0.0742728
0.0737029
0.0730475
0.0723721
0.071696
0.071323
0.0756698
0.0756206
0.0753132
0.0748277
0.0742327
0.0735118
0.0726328
0.071647
0.0705727
0.0698771
0.0757068
0.0756859
0.075418
0.07491
0.0742211
0.0733215
0.0721373
0.0706713
0.0688733
0.0673835
0.0757244
0.0757203
0.0755066
0.0750254
0.0742821
0.0731978
0.0716251
0.069414
0.0663366
0.0623102
0.0757348
0.075716
0.0755484
0.0751717
0.0744695
0.0732314
0.0712113
0.0677654
0.0628954
0.050916
0.0759756
0.0760176
0.0757053
0.0755817
0.0755398
0.0755383
0.0755773
0.0756984
0.0760086
0.0759606
0.0755118
0.0754926
0.0754584
0.0754607
0.0754455
0.0754439
0.075456
0.075451
0.0754826
0.0754982
0.0753434
0.0751531
0.0752366
0.0752926
0.0752942
0.0752923
0.0752873
0.0752282
0.0751416
0.0753284
0.0752899
0.075046
0.0751436
0.0751722
0.0751698
0.0751676
0.0751657
0.0751334
0.0750321
0.0752721
0.075215
0.0750014
0.075103
0.0750971
0.0750916
0.0750888
0.0750889
0.0750903
0.074984
0.0751932
0.0751218
0.074947
0.0750513
0.0750288
0.0750292
0.0750257
0.0750184
0.0750352
0.0749252
0.0750942
0.0750399
0.0748928
0.0749906
0.0749592
0.0749668
0.0749625
0.0749458
0.0749699
0.074865
0.0750049
0.0749773
0.0748518
0.0749375
0.0748983
0.0749093
0.0749038
0.0748809
0.0749106
0.0748159
0.0749324
0.0749279
0.0748213
0.0748948
0.0748499
0.0748611
0.0748541
0.0748273
0.0748598
0.0747747
0.0748701
0.0748866
0.0747957
0.074858
0.0748103
0.0748201
0.0748109
0.0747808
0.0748125
0.0747353
0.0748119
0.0748528
0.0747732
0.0748248
0.0747757
0.0747827
0.0747708
0.0747373
0.0747657
0.074695
0.0747557
0.0748267
0.0747548
0.0747955
0.0747452
0.0747476
0.0747322
0.0746953
0.0747187
0.0746533
0.0747006
0.0748084
0.0747415
0.0747714
0.0747189
0.074715
0.0746949
0.074654
0.074671
0.0746092
0.0746456
0.0747985
0.0747344
0.0747525
0.0746966
0.0746845
0.0746583
0.0746123
0.0746213
0.0745611
0.0745885
0.0747976
0.0747335
0.0747387
0.0746777
0.0746557
0.0746215
0.0745687
0.0745679
0.0745072
0.0745263
0.0748069
0.0747397
0.0747307
0.0746624
0.074628
0.0745833
0.0745216
0.074509
0.0744452
0.0744562
0.0748279
0.074755
0.0747296
0.0746508
0.0746007
0.0745424
0.074469
0.0744421
0.0743725
0.074375
0.0748621
0.0747816
0.0747366
0.0746431
0.0745734
0.0744974
0.0744083
0.0743642
0.0742851
0.0742783
0.0749114
0.0748212
0.0747525
0.0746392
0.074545
0.0744463
0.0743365
0.0742706
0.0741778
0.0741604
0.0749769
0.0748756
0.0747778
0.0746387
0.0745143
0.0743866
0.0742493
0.0741558
0.0740437
0.0740135
0.0750588
0.0749464
0.0748131
0.0746413
0.0744799
0.0743152
0.0741417
0.0740123
0.0738729
0.0738264
0.0751553
0.0750339
0.0748591
0.0746468
0.0744401
0.0742285
0.074007
0.0738297
0.0736513
0.073583
0.0752627
0.0751371
0.0749161
0.074655
0.0743937
0.0741224
0.0738367
0.0735938
0.0733587
0.0732589
0.0753744
0.0752521
0.0749843
0.0746666
0.0743401
0.0739929
0.0736208
0.0732849
0.0729642
0.072816
0.0754821
0.0753722
0.0750637
0.0746842
0.0742809
0.0738381
0.0733481
0.0728764
0.0724201
0.0721901
0.0755773
0.0754879
0.0751544
0.0747138
0.074223
0.0736602
0.0730084
0.0723327
0.0716488
0.0712679
0.0756535
0.07559
0.0752578
0.0747682
0.0741841
0.0734746
0.0726012
0.0716138
0.070525
0.0698144
0.0757097
0.0756726
0.0753748
0.0748673
0.0741981
0.0733169
0.0721416
0.0706728
0.0688504
0.0673312
0.0757506
0.0757339
0.0755089
0.0750511
0.0743428
0.0732853
0.0717267
0.0695159
0.06641
0.0623469
0.0757792
0.0757682
0.0756596
0.0753598
0.0747098
0.0734983
0.0714948
0.0680599
0.0631823
0.0512406
0.0759396
0.0759791
0.0756653
0.0755414
0.0754994
0.0754979
0.0755369
0.0756585
0.0759701
0.0759245
0.0755001
0.0754791
0.0754449
0.0754472
0.0754319
0.0754303
0.0754425
0.0754375
0.0754691
0.0754864
0.0753472
0.0751559
0.0752399
0.075296
0.0752975
0.0752956
0.0752907
0.0752315
0.0751445
0.0753323
0.0752922
0.0750465
0.0751438
0.0751721
0.0751694
0.0751671
0.0751655
0.0751336
0.0750326
0.0752744
0.0752152
0.0750001
0.075101
0.0750944
0.0750884
0.0750856
0.0750862
0.0750883
0.0749828
0.0751933
0.0751248
0.074951
0.0750559
0.0750328
0.0750328
0.0750293
0.0750223
0.0750398
0.0749293
0.0750973
0.0750468
0.0749033
0.0750031
0.0749715
0.0749792
0.0749748
0.0749581
0.0749824
0.0748755
0.0750117
0.0749866
0.074866
0.0749545
0.0749154
0.0749268
0.0749213
0.074898
0.0749276
0.0748302
0.0749416
0.0749386
0.0748373
0.0749138
0.0748691
0.074881
0.074874
0.0748465
0.0748789
0.074791
0.0748806
0.0748983
0.0748126
0.0748781
0.0748305
0.0748412
0.0748321
0.0748011
0.0748326
0.0747525
0.0748234
0.0748648
0.0747906
0.0748453
0.0747963
0.0748043
0.0747926
0.074758
0.0747862
0.0747125
0.074768
0.0748387
0.0747718
0.0748156
0.0747653
0.074769
0.0747537
0.0747155
0.0747388
0.0746702
0.0747135
0.0748203
0.0747576
0.0747902
0.0747379
0.0747353
0.0747154
0.0746732
0.0746902
0.074625
0.0746587
0.0748096
0.0747489
0.0747698
0.074714
0.0747035
0.0746774
0.0746301
0.0746393
0.0745759
0.0746011
0.0748076
0.0747463
0.0747547
0.0746937
0.0746731
0.074639
0.0745851
0.0745846
0.0745209
0.0745382
0.0748157
0.0747512
0.0747453
0.0746768
0.0746435
0.0745991
0.0745363
0.0745242
0.074458
0.0744673
0.0748354
0.0747652
0.0747427
0.0746633
0.0746144
0.0745564
0.074482
0.0744558
0.0743841
0.0743852
0.0748684
0.0747899
0.0747476
0.0746535
0.074585
0.0745095
0.0744195
0.074376
0.0742954
0.0742875
0.0749161
0.0748273
0.0747609
0.0746471
0.0745544
0.0744564
0.0743458
0.0742807
0.0741868
0.0741686
0.0749795
0.0748789
0.0747832
0.0746438
0.0745212
0.0743944
0.0742566
0.074164
0.0740511
0.0740204
0.0750586
0.0749463
0.0748151
0.0746434
0.074484
0.0743204
0.0741467
0.0740183
0.0738784
0.0738318
0.0751521
0.0750301
0.0748572
0.0746455
0.074441
0.0742307
0.0740092
0.0738332
0.0736546
0.0735863
0.0752566
0.0751296
0.07491
0.0746499
0.0743909
0.0741212
0.0738359
0.0735943
0.0733593
0.0732597
0.0753663
0.0752417
0.0749739
0.0746573
0.0743332
0.0739881
0.0736166
0.0732822
0.0729617
0.0728137
0.0754739
0.0753607
0.0750496
0.0746707
0.0742702
0.0738299
0.073341
0.0728709
0.0724147
0.0721845
0.0755719
0.0754781
0.0751385
0.0746973
0.0742101
0.0736509
0.0730009
0.0723267
0.0716421
0.0712603
0.0756538
0.0755855
0.0752434
0.0747526
0.0741741
0.0734703
0.0725998
0.0716138
0.0705233
0.0698101
0.0757169
0.0756757
0.0753682
0.0748619
0.0742024
0.0733306
0.0721605
0.0706936
0.0688684
0.0673441
0.0757632
0.0757437
0.0755194
0.0750742
0.0743837
0.0733418
0.0717936
0.0695876
0.0664815
0.0624057
0.0757951
0.0757849
0.0757042
0.0754417
0.0748224
0.0736346
0.0716496
0.0682265
0.0633563
0.0513767
0.0759396
0.0759792
0.0756654
0.0755414
0.0754995
0.0754979
0.075537
0.0756586
0.0759702
0.0759246
0.0755001
0.0754792
0.075445
0.0754472
0.075432
0.0754304
0.0754425
0.0754376
0.0754692
0.0754865
0.0753473
0.075156
0.0752399
0.0752961
0.0752975
0.0752957
0.0752907
0.0752315
0.0751445
0.0753324
0.0752923
0.0750466
0.0751438
0.0751721
0.0751694
0.0751672
0.0751656
0.0751337
0.0750327
0.0752745
0.0752153
0.0750001
0.0751011
0.0750944
0.0750884
0.0750857
0.0750863
0.0750884
0.0749828
0.0751934
0.0751249
0.0749511
0.0750559
0.0750328
0.0750329
0.0750294
0.0750224
0.0750398
0.0749293
0.0750973
0.0750469
0.0749033
0.0750032
0.0749716
0.0749792
0.0749749
0.0749581
0.0749825
0.0748755
0.0750117
0.0749867
0.074866
0.0749545
0.0749155
0.0749269
0.0749213
0.074898
0.0749277
0.0748303
0.0749415
0.0749387
0.0748374
0.0749139
0.0748692
0.0748811
0.074874
0.0748465
0.0748789
0.0747911
0.0748805
0.0748985
0.0748127
0.0748781
0.0748306
0.0748413
0.0748322
0.0748011
0.0748327
0.0747526
0.0748234
0.074865
0.0747906
0.0748453
0.0747963
0.0748044
0.0747926
0.074758
0.0747861
0.0747126
0.0747681
0.0748386
0.074772
0.0748158
0.0747654
0.0747691
0.0747538
0.0747156
0.0747388
0.0746702
0.0747137
0.07482
0.0747578
0.0747905
0.074738
0.0747355
0.0747155
0.0746733
0.0746902
0.0746251
0.0746588
0.0748093
0.074749
0.07477
0.0747142
0.0747037
0.0746776
0.0746303
0.0746393
0.074576
0.0746012
0.0748075
0.0747466
0.0747549
0.074694
0.0746733
0.0746392
0.0745853
0.0745847
0.0745211
0.0745384
0.0748158
0.0747517
0.0747458
0.0746771
0.0746438
0.0745993
0.0745366
0.0745244
0.0744582
0.0744677
0.0748358
0.0747658
0.0747432
0.0746637
0.0746147
0.0745567
0.0744823
0.074456
0.0743844
0.0743857
0.0748689
0.0747906
0.0747481
0.0746539
0.0745854
0.0745099
0.07442
0.0743764
0.0742959
0.0742881
0.0749165
0.0748278
0.0747613
0.0746475
0.0745549
0.0744569
0.0743464
0.0742813
0.0741875
0.0741694
0.0749799
0.0748793
0.0747835
0.0746444
0.0745219
0.0743952
0.0742575
0.0741649
0.074052
0.0740214
0.075059
0.0749466
0.0748154
0.0746442
0.0744849
0.0743215
0.0741478
0.0740195
0.0738796
0.073833
0.0751524
0.0750303
0.0748577
0.0746464
0.0744421
0.074232
0.0740107
0.0738346
0.0736562
0.073588
0.0752568
0.0751297
0.0749105
0.074651
0.0743923
0.0741227
0.0738376
0.0735961
0.0733613
0.0732618
0.0753663
0.0752417
0.0749744
0.0746586
0.0743348
0.0739898
0.0736186
0.0732845
0.0729642
0.0728163
0.0754736
0.0753604
0.0750501
0.074672
0.0742719
0.0738319
0.0733434
0.0728737
0.0724177
0.0721878
0.0755713
0.0754775
0.0751386
0.0746985
0.0742118
0.073653
0.0730036
0.0723299
0.0716458
0.0712642
0.0756529
0.0755845
0.075243
0.0747533
0.0741755
0.0734723
0.0726025
0.0716173
0.0705275
0.0698146
0.0757159
0.0756743
0.075367
0.0748618
0.074203
0.0733319
0.0721627
0.0706969
0.0688729
0.067349
0.0757624
0.0757422
0.0755172
0.0750723
0.0743826
0.0733415
0.0717943
0.0695897
0.0664854
0.06241
0.0757943
0.0757831
0.0757004
0.0754374
0.0748186
0.0736317
0.071648
0.0682265
0.0633577
0.0513803
0.0759759
0.0760178
0.0757056
0.075582
0.0755401
0.0755386
0.0755775
0.0756987
0.0760089
0.075961
0.075512
0.0754928
0.0754587
0.075461
0.0754458
0.0754442
0.0754563
0.0754513
0.0754829
0.0754985
0.0753436
0.0751533
0.0752368
0.0752929
0.0752944
0.0752925
0.0752875
0.0752284
0.0751419
0.0753287
0.0752901
0.0750462
0.0751438
0.0751724
0.07517
0.0751678
0.0751659
0.0751336
0.0750323
0.0752724
0.0752152
0.0750015
0.0751032
0.0750973
0.0750918
0.075089
0.0750891
0.0750905
0.0749842
0.0751934
0.075122
0.0749471
0.0750515
0.075029
0.0750293
0.0750259
0.0750186
0.0750354
0.0749254
0.0750944
0.0750401
0.074893
0.0749908
0.0749593
0.074967
0.0749626
0.0749459
0.0749701
0.0748652
0.075005
0.0749776
0.0748519
0.0749376
0.0748985
0.0749095
0.0749039
0.074881
0.0749108
0.0748161
0.0749326
0.0749284
0.0748214
0.0748949
0.0748501
0.0748613
0.0748542
0.0748274
0.0748599
0.0747749
0.0748704
0.0748873
0.0747958
0.0748582
0.0748105
0.0748203
0.0748111
0.074781
0.0748126
0.0747355
0.0748123
0.0748533
0.0747735
0.0748251
0.0747759
0.0747829
0.0747711
0.0747376
0.0747658
0.0746952
0.0747561
0.074827
0.0747553
0.0747961
0.0747454
0.074748
0.0747326
0.0746956
0.074719
0.0746535
0.074701
0.0748086
0.0747421
0.0747718
0.0747192
0.0747155
0.0746954
0.0746544
0.0746714
0.0746095
0.0746458
0.0747985
0.0747347
0.0747529
0.074697
0.0746852
0.0746589
0.0746129
0.0746218
0.0745615
0.0745886
0.0747976
0.0747338
0.0747394
0.0746785
0.0746565
0.0746222
0.0745694
0.0745686
0.0745078
0.0745267
0.0748072
0.0747405
0.0747319
0.0746635
0.0746289
0.0745841
0.0745225
0.0745099
0.0744462
0.074457
0.0748286
0.0747565
0.0747313
0.0746521
0.0746018
0.0745435
0.07447
0.0744433
0.0743738
0.0743761
0.0748633
0.0747833
0.0747384
0.0746445
0.0745748
0.0744988
0.0744097
0.0743656
0.0742868
0.0742799
0.0749129
0.0748231
0.0747542
0.0746407
0.0745468
0.0744483
0.0743384
0.0742726
0.0741802
0.0741626
0.0749785
0.0748775
0.0747795
0.0746405
0.0745167
0.0743893
0.074252
0.0741586
0.0740467
0.0740165
0.0750603
0.0749482
0.074815
0.0746437
0.0744829
0.0743187
0.0741453
0.074016
0.0738768
0.0738303
0.0751567
0.0750356
0.0748613
0.0746498
0.074444
0.0742328
0.0740116
0.0738345
0.0736563
0.073588
0.0752637
0.0751386
0.0749186
0.0746587
0.0743985
0.0741277
0.0738425
0.0735999
0.0733652
0.0732655
0.0753748
0.0752532
0.074987
0.074671
0.0743457
0.0739994
0.0736279
0.0732926
0.0729725
0.0728245
0.0754815
0.0753725
0.0750664
0.074689
0.0742873
0.0738456
0.0733567
0.072886
0.0724306
0.0722009
0.0755756
0.0754869
0.0751566
0.0747187
0.0742298
0.0736686
0.0730184
0.0723444
0.0716617
0.0712814
0.0756507
0.0755875
0.0752586
0.0747722
0.0741904
0.0734831
0.0726121
0.0716273
0.0705407
0.0698306
0.075706
0.0756685
0.0753731
0.0748687
0.0742022
0.0733239
0.072152
0.070687
0.0688685
0.06735
0.0757465
0.0757285
0.0755031
0.0750472
0.0743421
0.0732884
0.0717342
0.0695281
0.0664284
0.0623661
0.0757748
0.0757609
0.0756474
0.0753476
0.0747014
0.0734951
0.0714973
0.0680675
0.0631973
0.0512578
0.076095
0.0761347
0.0758272
0.0757045
0.075663
0.0756615
0.0757001
0.0758204
0.0761258
0.0760804
0.075508
0.0754845
0.0754555
0.0754574
0.0754422
0.0754406
0.0754527
0.0754481
0.0754746
0.0754944
0.0752935
0.0750964
0.0751816
0.0752353
0.0752368
0.0752349
0.0752299
0.0751731
0.0750849
0.0752785
0.0752602
0.0750163
0.0751153
0.075142
0.0751399
0.0751377
0.0751354
0.075105
0.0750023
0.0752423
0.0752098
0.075003
0.075107
0.0751009
0.0750961
0.0750934
0.0750927
0.0750942
0.0749855
0.0751879
0.0751292
0.0749639
0.0750702
0.0750486
0.0750496
0.0750462
0.0750382
0.0750541
0.0749422
0.0751016
0.0750543
0.0749179
0.075017
0.0749872
0.0749949
0.0749905
0.0749736
0.0749963
0.0748901
0.0750194
0.074997
0.0748824
0.0749698
0.074933
0.0749438
0.0749382
0.0749153
0.0749427
0.0748463
0.0749526
0.0749509
0.0748549
0.0749306
0.0748888
0.0748998
0.0748925
0.0748658
0.0748953
0.0748079
0.074894
0.0749107
0.0748299
0.0748948
0.0748498
0.0748597
0.0748504
0.0748203
0.0748489
0.0747689
0.0748372
0.074876
0.0748069
0.0748609
0.0748139
0.0748211
0.0748092
0.0747759
0.0748013
0.0747278
0.0747808
0.0748486
0.0747871
0.0748302
0.0747814
0.0747841
0.0747688
0.0747319
0.0747527
0.0746847
0.0747249
0.0748291
0.0747719
0.0748039
0.0747528
0.0747492
0.0747291
0.0746881
0.0747028
0.0746388
0.0746687
0.0748175
0.0747623
0.0747828
0.074728
0.0747163
0.07469
0.0746438
0.0746507
0.0745889
0.0746103
0.0748153
0.0747592
0.0747671
0.0747067
0.0746851
0.0746507
0.0745978
0.0745951
0.0745333
0.0745472
0.0748241
0.0747639
0.0747576
0.0746892
0.0746551
0.0746101
0.0745483
0.0745342
0.07447
0.0744766
0.074845
0.0747782
0.0747554
0.0746759
0.0746262
0.0745674
0.0744938
0.0744657
0.074396
0.0743952
0.0748797
0.0748041
0.0747617
0.074667
0.0745978
0.0745213
0.0744319
0.0743865
0.0743079
0.0742988
0.0749299
0.0748438
0.0747776
0.0746628
0.0745692
0.07447
0.0743596
0.0742926
0.0742007
0.0741819
0.0749972
0.0748994
0.0748042
0.0746633
0.0745394
0.0744111
0.0742732
0.0741787
0.0740675
0.0740368
0.0750819
0.0749726
0.0748424
0.0746686
0.0745073
0.0743419
0.0741677
0.0740373
0.0738989
0.0738528
0.0751824
0.0750641
0.0748928
0.0746785
0.0744716
0.0742589
0.0740366
0.0738584
0.0736814
0.0736143
0.0752941
0.0751722
0.074956
0.0746933
0.0744312
0.0741584
0.0738718
0.0736282
0.0733951
0.0732974
0.075409
0.0752922
0.0750316
0.0747136
0.0743855
0.0740365
0.0736634
0.0733272
0.0730096
0.0728648
0.0755163
0.075415
0.0751186
0.0747414
0.0743357
0.0738902
0.0733992
0.0729282
0.0724771
0.0722526
0.0756051
0.0755282
0.0752152
0.0747808
0.074286
0.0737187
0.0730659
0.0723928
0.0717182
0.0713467
0.0756672
0.0756196
0.0753183
0.0748378
0.0742458
0.0735283
0.0726534
0.0716716
0.0706003
0.0699066
0.0757022
0.0756822
0.0754201
0.0749164
0.0742306
0.0733356
0.0721576
0.0706982
0.0689066
0.067419
0.0757157
0.0757111
0.0754991
0.0750209
0.0742817
0.0732038
0.07164
0.0694386
0.0663737
0.062348
0.0757221
0.0756977
0.0755222
0.0751452
0.0744497
0.0732221
0.0712162
0.0677836
0.0629349
0.050953
0.0764297
0.0764634
0.076134
0.076016
0.075976
0.0759744
0.0760116
0.0761272
0.0764547
0.0764156
0.0755685
0.0755181
0.0754833
0.0754903
0.0754751
0.0754735
0.0754856
0.0754759
0.0755082
0.0755549
0.0752297
0.0750097
0.0750949
0.0751503
0.0751512
0.0751494
0.0751449
0.0750864
0.0749982
0.0752144
0.0751742
0.0749137
0.0750145
0.0750425
0.0750407
0.0750385
0.0750359
0.0750041
0.0748996
0.0751561
0.0751221
0.0748976
0.0750007
0.0749969
0.0749928
0.07499
0.0749887
0.0749877
0.0748799
0.0751
0.0750445
0.0748597
0.074961
0.0749413
0.0749418
0.0749383
0.0749309
0.0749449
0.0748377
0.0750163
0.0749766
0.0748221
0.0749142
0.0748856
0.0748914
0.074887
0.0748722
0.0748935
0.0747939
0.0749407
0.0749284
0.0747978
0.0748777
0.0748425
0.0748506
0.074845
0.074825
0.0748507
0.0747615
0.074883
0.0748911
0.0747808
0.074849
0.0748091
0.0748172
0.07481
0.0747863
0.0748136
0.0747338
0.0748331
0.074858
0.0747648
0.0748224
0.0747797
0.0747864
0.0747771
0.0747501
0.0747762
0.0747039
0.0747835
0.0748293
0.0747496
0.0747971
0.0747524
0.0747564
0.0747442
0.074714
0.0747369
0.0746705
0.0747328
0.074807
0.0747369
0.0747744
0.0747277
0.0747272
0.0747115
0.0746777
0.0746963
0.0746342
0.0746814
0.0747922
0.0747281
0.0747555
0.0747061
0.0746995
0.074679
0.0746409
0.0746536
0.0745944
0.0746293
0.0747852
0.0747244
0.0747411
0.0746877
0.0746731
0.0746464
0.0746029
0.0746081
0.07455
0.0745747
0.0747873
0.0747269
0.0747316
0.0746723
0.0746478
0.074613
0.0745623
0.0745584
0.0744992
0.0745155
0.0748
0.0747369
0.074728
0.0746603
0.0746234
0.0745779
0.0745179
0.0745028
0.07444
0.074449
0.074825
0.0747566
0.0747314
0.0746522
0.0745998
0.0745404
0.0744682
0.0744392
0.07437
0.0743717
0.074864
0.0747881
0.0747434
0.0746486
0.0745766
0.0744994
0.074411
0.0743647
0.0742857
0.0742792
0.0749193
0.074834
0.0747653
0.07465
0.0745534
0.0744533
0.0743435
0.0742754
0.0741826
0.0741663
0.0749927
0.0748971
0.0747988
0.074657
0.0745296
0.0744001
0.0742623
0.0741662
0.0740539
0.0740258
0.0750851
0.0749795
0.0748453
0.0746699
0.0745046
0.0743375
0.0741629
0.0740304
0.0738908
0.0738475
0.0751953
0.0750824
0.0749061
0.0746894
0.0744778
0.0742627
0.0740396
0.0738585
0.0736804
0.0736163
0.0753184
0.0752039
0.0749822
0.0747165
0.0744488
0.0741728
0.0738849
0.0736375
0.0734037
0.0733096
0.0754449
0.0753386
0.0750743
0.0747533
0.0744184
0.0740648
0.0736899
0.0733493
0.0730319
0.0728918
0.0755597
0.0754743
0.0751823
0.0748036
0.0743895
0.073937
0.0734435
0.072968
0.0725194
0.0723019
0.0756467
0.0755937
0.0753053
0.0748742
0.0743673
0.073789
0.0731326
0.0724564
0.07179
0.0714307
0.0756976
0.0756797
0.0754372
0.0749705
0.0743599
0.0736236
0.072743
0.0717624
0.0707138
0.0700448
0.0757198
0.0757372
0.0755651
0.0750834
0.0743671
0.07344
0.0722523
0.0708026
0.0690696
0.0676402
0.0757042
0.0757382
0.0756132
0.0751475
0.0743624
0.0732355
0.0716549
0.0694733
0.0665389
0.0626731
0.0756704
0.0756397
0.07544
0.0749847
0.0741976
0.0729066
0.0708813
0.067482
0.0628554
0.0513151
0.0761485
0.0764267
0.0760901
0.0759695
0.0759318
0.0759302
0.075965
0.0760831
0.076417
0.0761336
0.075583
0.0755666
0.0755046
0.0755072
0.0754938
0.0754922
0.0755025
0.075497
0.0755562
0.0755691
0.0754651
0.0752278
0.0752903
0.0753388
0.0753408
0.0753389
0.0753333
0.0752816
0.075216
0.0754497
0.0754365
0.0751722
0.0752566
0.0752847
0.0752846
0.0752824
0.075278
0.075246
0.0751581
0.0754185
0.0753397
0.0751199
0.0752055
0.0752086
0.0752059
0.0752031
0.0752002
0.0751924
0.0751025
0.0753181
0.0752168
0.0750416
0.0751239
0.0751136
0.0751129
0.0751094
0.0751029
0.0751071
0.0750193
0.0751897
0.0751149
0.0749728
0.0750474
0.0750291
0.0750314
0.075027
0.0750156
0.0750261
0.0749444
0.0750804
0.0750395
0.0749233
0.0749879
0.0749631
0.0749665
0.0749609
0.0749459
0.0749606
0.0748876
0.0749957
0.0749799
0.0748843
0.0749388
0.0749093
0.0749123
0.0749052
0.0748871
0.0749036
0.0748388
0.0749239
0.0749294
0.0748492
0.0748951
0.0748629
0.0748641
0.0748549
0.0748336
0.0748491
0.0747906
0.0748573
0.0748874
0.074818
0.0748562
0.0748219
0.0748203
0.0748081
0.0747831
0.074796
0.0747414
0.0747942
0.0748547
0.0747924
0.0748227
0.0747858
0.0747805
0.0747643
0.0747355
0.0747443
0.0746916
0.0747339
0.0748318
0.0747736
0.0747953
0.0747548
0.0747442
0.074723
0.0746899
0.0746932
0.0746412
0.0746751
0.0748186
0.0747618
0.0747743
0.0747287
0.0747109
0.0746833
0.0746444
0.0746412
0.0745887
0.0746151
0.0748158
0.074758
0.07476
0.0747074
0.0746802
0.0746443
0.0745979
0.0745865
0.0745319
0.0745513
0.0748247
0.0747634
0.0747529
0.0746909
0.074652
0.0746055
0.0745489
0.0745272
0.0744685
0.0744811
0.0748468
0.07478
0.0747541
0.0746796
0.0746258
0.0745653
0.0744958
0.0744612
0.0743959
0.0744013
0.0748845
0.07481
0.0747652
0.0746742
0.0746011
0.0745227
0.0744364
0.0743856
0.0743106
0.0743077
0.0749403
0.0748564
0.0747877
0.0746752
0.074578
0.0744763
0.0743682
0.0742967
0.0742079
0.0741953
0.0750162
0.0749224
0.0748234
0.0746836
0.074556
0.0744247
0.0742881
0.0741898
0.0740816
0.074057
0.0751131
0.0750107
0.0748745
0.0747002
0.074535
0.074366
0.074192
0.0740585
0.0739233
0.0738833
0.0752291
0.0751223
0.0749427
0.0747263
0.074515
0.0742982
0.074075
0.0738941
0.0737212
0.0736602
0.0753575
0.075254
0.0750292
0.0747634
0.0744965
0.0742191
0.073931
0.073685
0.0734578
0.0733668
0.0754854
0.075396
0.0751344
0.0748143
0.0744812
0.0741272
0.0737522
0.073415
0.0731069
0.0729701
0.0755943
0.0755295
0.0752565
0.0748846
0.074473
0.0740215
0.0735297
0.0730609
0.072627