/*--------------------------------*- C++ -*----------------------------------*\
| =========                 |                                                 |
| \\      /  F ield         | OpenFOAM: The Open Source CFD Toolbox           |
|  \\    /   O peration     | Version:  4.1                                   |
|   \\  /    A nd           | Web:      www.OpenFOAM.org                      |
|    \\/     M anipulation  |                                                 |
\*---------------------------------------------------------------------------*/
FoamFile
{
    version     2.0;
    format      ascii;
    class       surfaceScalarField;
    location    "300";
    object      phi;
}
// * * * * * * * * * * * * * * * * * * * * * * * * * * * * * * * * * * * * * //

dimensions      [0 3 -1 0 0 0 0];

internalField   nonuniform List<scalar> 
33700
(
4.95978e-05
0.000900888
4.9513e-05
2.31256e-05
0.000971114
5.53565e-05
8.43791e-06
0.000957227
5.74587e-05
3.15126e-06
0.000948047
5.72374e-05
8.6063e-08
0.000945596
5.74678e-05
-2.98665e-06
0.000945604
5.74673e-05
-8.29155e-06
0.000948068
5.72361e-05
-2.30074e-05
0.000957258
5.74554e-05
-4.95161e-05
0.000971154
5.53523e-05
0.000900879
4.96022e-05
3.1331e-05
0.000838396
3.11534e-05
2.37996e-05
0.000939391
3.92448e-05
1.34258e-05
0.000926557
4.10345e-05
6.13374e-06
0.00091499
4.03404e-05
2.1787e-07
0.000910789
4.07142e-05
-5.71477e-06
0.000910817
4.07119e-05
-1.30411e-05
0.000915063
4.03226e-05
-2.34098e-05
0.000926644
4.09737e-05
-3.09263e-05
0.000939463
3.91975e-05
0.000838693
3.12548e-05
1.63434e-05
0.000805988
1.60503e-05
1.68995e-05
0.000914921
2.38992e-05
1.17724e-05
0.000906766
2.49021e-05
6.07314e-06
0.000896342
2.4332e-05
3.86521e-07
0.000891656
2.48054e-05
-5.33059e-06
0.000891718
2.48021e-05
-1.11023e-05
0.000896512
2.43084e-05
-1.62769e-05
0.000906973
2.48311e-05
-1.58041e-05
0.000915089
2.38879e-05
0.00080681
1.60724e-05
9.00215e-06
0.000788393
8.5733e-06
1.2138e-05
0.000897189
1.45752e-05
9.65134e-06
0.000894732
1.45009e-05
5.27552e-06
0.000885989
1.471e-05
5.95994e-07
0.000881009
1.53078e-05
-4.12991e-06
0.00088112
1.53041e-05
-8.62554e-06
0.000886305
1.46822e-05
-1.12327e-05
0.000895143
1.4418e-05
-8.32525e-06
0.000897549
1.46167e-05
0.000789879
8.59822e-06
5.68863e-06
0.000777592
5.09031e-06
9.38215e-06
0.000883847
9.62707e-06
8.41202e-06
0.000887651
8.03027e-06
4.8182e-06
0.000880338
9.22447e-06
8.64263e-07
0.000875047
9.89554e-06
-3.15331e-06
0.000875227
9.88926e-06
-6.92142e-06
0.000880858
9.19382e-06
-8.1261e-06
0.000888364
7.96363e-06
-4.77519e-06
0.000884479
9.7026e-06
0.000780045
5.04984e-06
4.52583e-06
0.000769335
3.70884e-06
7.45512e-06
0.000873404
7.49191e-06
7.52844e-06
0.000883234
4.32492e-06
4.57855e-06
0.000876925
6.34506e-06
1.2062e-06
0.000871497
6.9041e-06
-2.25093e-06
0.000871769
6.89515e-06
-5.45776e-06
0.000877726
6.31776e-06
-5.77942e-06
0.000884384
4.28236e-06
-3.30084e-06
0.000874368
7.61582e-06
0.000773098
3.63821e-06
4.38388e-06
0.000761646
3.28467e-06
6.12288e-06
0.000864829
6.81834e-06
6.8915e-06
0.000880114
2.33624e-06
4.45995e-06
0.000874333
5.00982e-06
1.64913e-06
0.000868995
5.30006e-06
-1.27495e-06
0.000869395
5.28289e-06
-4.07264e-06
0.000875526
4.98148e-06
-3.88495e-06
0.000881901
2.27921e-06
-2.72814e-06
0.000866242
6.9531e-06
0.000767111
3.25026e-06
4.63425e-06
0.000753828
3.16679e-06
5.33579e-06
0.000857463
6.65081e-06
6.62513e-06
0.000877618
1.19737e-06
4.54772e-06
0.000871997
4.40691e-06
2.21497e-06
0.000866958
4.36264e-06
-2.6465e-07
0.000867531
4.33654e-06
-2.8125e-06
0.000873692
4.37243e-06
-2.2878e-06
0.000880277
1.08673e-06
-2.35592e-06
0.000859569
6.72923e-06
0.000761561
3.18509e-06
5.0229e-06
0.000745719
3.07359e-06
4.96001e-06
0.000851001
6.51743e-06
6.74022e-06
0.000875452
3.82231e-07
4.93953e-06
0.000869767
4.02952e-06
2.91889e-06
0.000865317
3.6637e-06
7.70406e-07
0.000866053
3.62726e-06
-1.65496e-06
0.00087213
3.98306e-06
-8.57639e-07
0.000879232
2.42064e-07
-1.90817e-06
0.000854023
6.58707e-06
0.000756511
3.13341e-06
5.54891e-06
0.00073718
2.98057e-06
4.91442e-06
0.000845289
6.34191e-06
7.15644e-06
0.000873466
-2.56191e-07
5.68874e-06
0.000867558
3.6814e-06
3.82008e-06
0.000864084
3.10805e-06
1.99503e-06
0.000864905
2.97735e-06
-5.59145e-07
0.000871105
3.58167e-06
4.61026e-07
0.000878678
-4.68655e-07
-1.34084e-06
0.000849388
6.42919e-06
0.000752107
3.0548e-06
6.22696e-06
0.000728103
2.84173e-06
5.26166e-06
0.000840145
6.10589e-06
7.95231e-06
0.000871465
-6.89111e-07
6.63606e-06
0.000865391
3.48762e-06
5.18391e-06
0.000862922
2.6194e-06
3.74301e-06
0.0008639
2.45277e-06
4.73013e-07
0.000870903
3.47618e-06
1.77396e-06
0.000878473
-1.09903e-06
-6.94596e-07
0.00084571
6.13961e-06
0.000748405
2.99858e-06
7.07407e-06
0.000718425
2.59403e-06
6.02442e-06
0.000835285
5.90354e-06
9.13298e-06
0.000869211
-8.56842e-07
7.89777e-06
0.000863223
3.40399e-06
6.84864e-06
0.000861626
2.34828e-06
5.41135e-06
0.000863136
2.20475e-06
2.186e-06
0.000870887
3.24197e-06
3.6142e-06
0.00087857
-1.52865e-06
-2.59281e-08
0.000843367
5.97493e-06
0.000745259
3.10945e-06
8.23442e-06
0.000707858
2.3191e-06
7.27872e-06
0.000830526
5.70452e-06
1.07614e-05
0.000866578
-8.57184e-07
9.7265e-06
0.00086087
3.38279e-06
8.79247e-06
0.000860272
2.28482e-06
7.17443e-06
0.000862553
2.19793e-06
4.50289e-06
0.000870281
3.27315e-06
5.42869e-06
0.000879029
-1.39288e-06
9.36995e-07
0.000842118
5.72882e-06
0.000742979
3.20527e-06
9.8428e-06
0.000695946
2.05232e-06
9.19034e-06
0.000825682
5.48156e-06
1.30557e-05
0.000863499
-7.99353e-07
1.22384e-05
0.0008583
3.37541e-06
1.14202e-05
0.000858833
2.24689e-06
9.75024e-06
0.000862027
2.18608e-06
6.98577e-06
0.000869505
3.52808e-06
7.19184e-06
0.000879839
-1.0298e-06
2.27106e-06
0.000841372
5.65097e-06
0.000742067
3.16949e-06
1.19972e-05
0.000682145
1.78425e-06
1.18686e-05
0.000820563
5.22987e-06
1.61708e-05
0.000859891
-7.11163e-07
1.56382e-05
0.000855472
3.34318e-06
1.49389e-05
0.000857301
2.21351e-06
1.31955e-05
0.000861641
2.11217e-06
1.00148e-05
0.000868997
3.67168e-06
9.46245e-06
0.000881171
-7.96836e-07
3.70881e-06
0.000841456
5.6509e-06
0.000742512
3.2492e-06
1.48435e-05
0.000665724
1.55444e-06
1.55372e-05
0.000814881
4.96679e-06
2.03682e-05
0.000855619
-5.80715e-07
2.01748e-05
0.000852339
3.30406e-06
1.95814e-05
0.000855671
2.20167e-06
1.76865e-05
0.000861492
2.02303e-06
1.38794e-05
0.00086904
3.74304e-06
1.24211e-05
0.000883253
-6.44472e-07
5.40548e-06
0.00084284
5.6094e-06
0.000744511
3.38991e-06
1.85611e-05
0.000645728
1.40918e-06
2.0518e-05
0.000808155
4.74552e-06
2.59613e-05
0.000850502
-3.51508e-07
2.61727e-05
0.000848811
3.29151e-06
2.56596e-05
0.000853905
2.25307e-06
2.35057e-05
0.000861645
1.97464e-06
1.88861e-05
0.000869842
3.79315e-06
1.62666e-05
0.000886352
-5.03464e-07
7.53663e-06
0.000845999
5.54678e-06
0.000748402
3.62797e-06
2.33562e-05
0.000620913
1.43154e-06
2.71753e-05
0.000799652
4.65729e-06
3.33548e-05
0.000844248
4.71574e-08
3.40442e-05
0.00084474
3.35179e-06
3.35705e-05
0.000851929
2.41987e-06
3.10415e-05
0.000862128
2.01773e-06
2.53865e-05
0.000871589
3.88032e-06
2.12533e-05
0.000890761
-3.01808e-07
1.02886e-05
0.000851418
5.51977e-06
0.000754673
3.99929e-06
2.9422e-05
0.00058972
1.73937e-06
3.5976e-05
0.00078826
4.80921e-06
4.30534e-05
0.000836453
6.86946e-07
4.43015e-05
0.000839901
3.5588e-06
4.38302e-05
0.000849601
2.76702e-06
4.07916e-05
0.000862912
2.22292e-06
3.38312e-05
0.000874449
4.06988e-06
2.77497e-05
0.000896753
6.0973e-08
1.38843e-05
0.000859649
5.60521e-06
0.000763971
4.56537e-06
3.69205e-05
0.000550255
2.5089e-06
4.7496e-05
0.000772292
5.36016e-06
5.56817e-05
0.000826583
1.6506e-06
5.75798e-05
0.000833957
4.0106e-06
5.71042e-05
0.000846667
3.37388e-06
5.34203e-05
0.000863889
2.67231e-06
4.48259e-05
0.000878568
4.44406e-06
3.62446e-05
0.00090463
6.75301e-07
1.85999e-05
0.000871369
5.89461e-06
0.000777129
5.41929e-06
4.58871e-05
0.000500362
3.96663e-06
6.23354e-05
0.000749286
6.52442e-06
7.20171e-05
0.00081378
3.08629e-06
7.46717e-05
0.000826422
4.84361e-06
7.42314e-05
0.000842723
4.34716e-06
6.97924e-05
0.000864808
3.4844e-06
5.91959e-05
0.00088402
5.11088e-06
4.73912e-05
0.000914782
1.621e-06
2.48424e-05
0.000887393
6.49245e-06
0.00079527
6.67755e-06
5.60993e-05
0.000437854
6.36657e-06
8.09571e-05
0.000715812
8.58135e-06
9.29371e-05
0.000796557
5.2068e-06
9.65442e-05
0.000816543
6.23411e-06
9.62533e-05
0.000837141
5.83522e-06
9.10364e-05
0.000865175
4.81368e-06
7.80828e-05
0.000890722
6.21693e-06
6.2136e-05
0.000927654
3.04283e-06
3.31925e-05
0.000908742
7.56229e-06
0.000819928
8.51e-06
6.68545e-05
0.000361074
9.88272e-06
0.00010336
0.000667486
1.17876e-05
0.000119266
0.000772311
8.30534e-06
0.000124324
0.000803019
8.42927e-06
0.000124476
0.000828913
8.03815e-06
0.000118655
0.000864082
6.87706e-06
0.000103084
0.000898279
7.98055e-06
8.18971e-05
0.000943661
5.14845e-06
4.45617e-05
0.000936715
9.32928e-06
0.000853306
1.116e-05
7.66139e-05
0.000270038
1.43806e-05
0.000128402
0.000599441
1.62262e-05
0.00015143
0.000736591
1.26611e-05
0.000159264
0.000783367
1.17831e-05
0.000160544
0.000816363
1.1235e-05
0.00015467
0.000859971
9.94837e-06
0.000136513
0.000905705
1.06974e-05
0.00010887
0.000963047
8.22705e-06
6.03658e-05
0.000973071
1.21153e-05
0.000898657
1.49889e-05
8.26462e-05
0.000168281
1.90727e-05
0.000152942
0.000507587
2.15317e-05
0.000188608
0.000682357
1.85402e-05
0.00020248
0.000752666
1.67974e-05
0.000206478
0.00079649
1.58401e-05
0.000201778
0.000850254
1.43816e-05
0.000181734
0.000910971
1.47417e-05
0.000146619
0.000985469
1.26612e-05
8.31533e-05
0.0010201
1.63996e-05
0.000961246
2.05367e-05
8.01336e-05
6.63695e-05
2.17346e-05
0.000170596
0.000390645
2.64561e-05
0.000227475
0.00059934
2.61109e-05
0.000254328
0.000701484
2.42973e-05
0.000264807
0.000763443
2.25303e-05
0.000263774
0.000830613
2.06327e-05
0.000243785
0.000910353
2.05663e-05
0.000200927
0.00100935
1.89402e-05
0.000117158
0.00108102
2.2816e-05
0.00104983
2.85413e-05
6.03905e-05
-1.44378e-05
2.03491e-05
0.00017137
0.000250884
2.87446e-05
0.000260667
0.000475117
3.4894e-05
0.000312291
0.000614549
3.52718e-05
0.000337394
0.000705781
3.251e-05
0.000345367
0.000793148
2.94392e-05
0.000330024
0.000896952
2.86908e-05
0.000281741
0.00102993
2.76575e-05
0.000173003
0.00115737
3.23277e-05
0.00118237
4.04112e-05
1.56445e-05
-5.55305e-05
2.53284e-05
0.000145981
8.58029e-05
3.46736e-05
0.000277138
0.00029737
4.65375e-05
0.000369836
0.000471433
5.0367e-05
0.000425035
0.00060366
4.68654e-05
0.000453104
0.000723328
4.16881e-05
0.000451827
0.000858589
3.95828e-05
0.000405131
0.00103749
3.90592e-05
0.000268173
0.00124858
4.56956e-05
0.00139293
5.75844e-05
-9.02635e-07
-8.30771e-05
2.82713e-05
0.00010426
-6.53153e-05
4.58251e-05
0.000257075
7.93706e-05
6.51006e-05
0.000399336
0.000255707
7.3392e-05
0.000510811
0.000423249
6.88642e-05
0.000586402
0.000587954
5.9713e-05
0.000625047
0.000765468
5.4397e-05
0.00059607
0.00101275
5.36674e-05
0.000474311
0.00130602
6.4263e-05
0.00178358
8.36118e-05
7.16369e-05
5.46416e-06
-0.000160303
0.000169338
2.39857e-05
-0.000187098
0.000278545
5.86056e-05
-8.851e-05
0.000409568
8.45411e-05
4.01169e-05
0.000564569
9.04222e-05
0.000177817
0.000717001
8.18762e-05
0.000353628
0.000852981
7.16684e-05
0.000557805
0.000902614
6.83392e-05
0.000894757
0.000884988
7.98744e-05
0.00124377
0.000117353
0.00255124
5.54288e-05
0.000971038
2.30445e-05
2.07291e-05
0.00106939
2.06675e-05
6.59448e-06
0.0010502
2.13969e-05
2.34292e-06
0.0010399
2.15879e-05
6.38641e-08
0.00103804
2.17098e-05
-2.22227e-06
0.00103804
2.17091e-05
-6.49744e-06
0.00103993
2.15847e-05
-2.07282e-05
0.0010503
2.13895e-05
-5.57396e-05
0.00106967
2.06895e-05
0.000970748
2.31134e-05
3.94048e-05
0.000939189
2.35965e-05
2.25605e-05
0.0011031
2.23785e-05
1.28177e-05
0.00107819
2.278e-05
5.82335e-06
0.00106419
2.30378e-05
1.92941e-07
0.00106115
2.32319e-05
-5.45761e-06
0.00106118
2.32283e-05
-1.25129e-05
0.00106428
2.3019e-05
-2.2306e-05
0.00107832
2.27404e-05
-3.89499e-05
0.00110311
2.24036e-05
0.000939395
2.36567e-05
2.41658e-05
0.000914512
1.6561e-05
1.71729e-05
0.00111713
1.68568e-05
1.14423e-05
0.00109252
1.63008e-05
5.72819e-06
0.00107796
1.62759e-05
3.85344e-07
0.00107484
1.64522e-05
-4.9846e-06
0.0010749
1.64471e-05
-1.07813e-05
0.00107813
1.62565e-05
-1.66137e-05
0.00109271
1.62706e-05
-2.35972e-05
0.00111708
1.68972e-05
0.000915311
1.65578e-05
1.49635e-05
0.000896478
1.16426e-05
1.43936e-05
0.00111834
1.39304e-05
9.54053e-06
0.00109899
1.28733e-05
4.7404e-06
0.00108477
1.26924e-05
5.90698e-07
0.00108138
1.2915e-05
-3.59715e-06
0.00108148
1.29097e-05
-8.51097e-06
0.00108505
1.26714e-05
-1.35365e-05
0.00109931
1.28438e-05
-1.42326e-05
0.00111841
1.39775e-05
0.000898081
1.15942e-05
1.0167e-05
0.000882706
8.69031e-06
1.31797e-05
0.00111241
1.25373e-05
8.64278e-06
0.00110044
1.11106e-05
4.33118e-06
0.00108726
1.10339e-05
8.3508e-07
0.00108343
1.13326e-05
-2.7139e-06
0.00108358
1.13285e-05
-7.18825e-06
0.00108769
1.10142e-05
-1.19472e-05
0.00110094
1.10847e-05
-9.04751e-06
0.00111263
1.25768e-05
0.000885469
8.61077e-06
8.2259e-06
0.000871667
6.51209e-06
1.23152e-05
0.00110435
1.14481e-05
7.97644e-06
0.00109961
9.48304e-06
4.24451e-06
0.00108771
9.61248e-06
1.13768e-06
0.00108352
9.90379e-06
-2.03439e-06
0.00108373
9.89394e-06
-5.97873e-06
0.00108835
9.59432e-06
-1.05406e-05
0.00110032
9.44629e-06
-6.71026e-06
0.00110501
1.13956e-05
0.000875929
6.46215e-06
7.8005e-06
0.000862274
4.86056e-06
1.17526e-05
0.0010966
1.05949e-05
7.41986e-06
0.00109821
8.03908e-06
4.26462e-06
0.00108745
8.40825e-06
1.52001e-06
0.00108298
8.56556e-06
-1.31013e-06
0.00108327
8.55254e-06
-4.7305e-06
0.00108833
8.3957e-06
-9.34824e-06
0.00109921
7.99021e-06
-5.86117e-06
0.001098
1.046e-05
0.000868469
4.83911e-06
7.95892e-06
0.000853809
3.65044e-06
1.14823e-05
0.00108976
9.9488e-06
7.16182e-06
0.00109679
6.91294e-06
4.47075e-06
0.00108694
7.57905e-06
2.00316e-06
0.00108228
7.50334e-06
-5.8437e-07
0.00108267
7.50454e-06
-3.63777e-06
0.00108817
7.56022e-06
-8.47199e-06
0.00109824
6.87396e-06
-5.46328e-06
0.00109179
9.90944e-06
0.000862606
3.57273e-06
8.24298e-06
0.000845894
2.71766e-06
1.15087e-05
0.0010835
9.48095e-06
7.27622e-06
0.00109533
6.04576e-06
4.91551e-06
0.00108626
7.04784e-06
2.63414e-06
0.00108145
6.74683e-06
1.63132e-07
0.00108202
6.71815e-06
-2.69088e-06
0.001088
6.985e-06
-7.70745e-06
0.00109745
6.01752e-06
-5.06236e-06
0.00108615
9.56596e-06
0.000858102
2.5601e-06
8.59913e-06
0.00083827
1.97387e-06
1.18916e-05
0.00107731
9.20359e-06
7.77531e-06
0.00109373
5.43544e-06
5.58725e-06
0.00108546
6.63325e-06
3.47676e-06
0.00108035
6.28828e-06
1.01201e-06
0.00108137
6.05487e-06
-1.70491e-06
0.00108764
6.62085e-06
-6.76819e-06
0.00109673
5.28157e-06
-4.55083e-06
0.00108116
9.17431e-06
0.000854817
1.77261e-06
9.08731e-06
0.00083062
1.37219e-06
1.24508e-05
0.00107111
8.9134e-06
8.57515e-06
0.00109196
4.91877e-06
6.56938e-06
0.00108451
6.41422e-06
4.53028e-06
0.00107926
5.71465e-06
2.00174e-06
0.00108077
5.5538e-06
-5.00896e-07
0.00108649
7.09987e-06
-5.60922e-06
0.00109591
4.79993e-06
-3.80513e-06
0.00107669
8.77881e-06
0.00085287
1.12335e-06
9.82483e-06
0.000822507
8.49641e-07
1.31229e-05
0.00106522
8.46723e-06
9.67304e-06
0.00109017
4.35338e-06
7.86213e-06
0.00108351
6.18729e-06
5.81361e-06
0.00107857
5.06257e-06
3.35837e-06
0.00108034
5.06037e-06
7.54175e-07
0.00108556
6.74608e-06
-4.89495e-06
0.00109562
4.38186e-06
-2.94513e-06
0.00107173
8.95355e-06
0.000852547
4.70918e-07
1.08565e-05
0.000813517
4.20186e-07
1.41834e-05
0.00105948
8.08081e-06
1.12347e-05
0.00108835
3.89081e-06
9.54782e-06
0.0010826
5.95107e-06
7.58715e-06
0.00107814
4.64633e-06
5.19748e-06
0.00108034
4.5578e-06
2.04978e-06
0.00108618
5.77887e-06
-3.34763e-06
0.00109591
3.69471e-06
-1.88792e-06
0.0010674
8.58263e-06
0.000853548
3.01212e-07
1.22378e-05
0.000803222
7.88616e-08
1.5758e-05
0.00105365
7.76649e-06
1.33569e-05
0.00108631
3.61644e-06
1.17995e-05
0.00108166
5.85605e-06
9.91471e-06
0.00107787
4.38403e-06
7.4987e-06
0.00108067
4.25405e-06
4.13126e-06
0.00108746
5.59299e-06
-9.17878e-07
0.00109674
3.16553e-06
-8.74624e-07
0.00106532
7.66417e-06
0.000855423
4.03675e-07
1.40238e-05
0.000791166
-2.13951e-07
1.79587e-05
0.00104743
7.49248e-06
1.61967e-05
0.00108388
3.45424e-06
1.47813e-05
0.0010806
5.79352e-06
1.29563e-05
0.00107768
4.20204e-06
1.04273e-05
0.00108127
4.02337e-06
6.74642e-06
0.00108924
5.54645e-06
1.49755e-06
0.00109836
2.81482e-06
2.69208e-07
0.00106497
7.20787e-06
0.000858411
5.1546e-07
1.6334e-05
0.000776754
-3.97813e-07
2.09871e-05
0.00104042
7.29114e-06
1.994e-05
0.00108095
3.37608e-06
1.86986e-05
0.00107935
5.7732e-06
1.69153e-05
0.00107755
4.09949e-06
1.41926e-05
0.00108214
3.85469e-06
1.00622e-05
0.00109155
5.55216e-06
4.35474e-06
0.00110084
2.55946e-06
1.72754e-06
0.00106629
6.89475e-06
0.00086284
6.72717e-07
1.93414e-05
0.000759228
-4.36852e-07
2.50437e-05
0.00103228
7.16274e-06
2.48456e-05
0.00107733
3.43409e-06
2.38155e-05
0.00107784
5.81463e-06
2.20513e-05
0.00107746
4.08984e-06
1.90538e-05
0.00108334
3.75584e-06
1.43194e-05
0.00109446
5.58927e-06
7.89032e-06
0.00110434
2.40269e-06
3.633e-06
0.0010694
6.67267e-06
0.000869212
8.73139e-07
2.32421e-05
0.000737688
-3.02962e-07
3.04582e-05
0.00102253
7.15941e-06
3.12395e-05
0.00107289
3.67929e-06
3.0473e-05
0.00107598
5.95618e-06
2.87052e-05
0.00107741
4.21474e-06
2.53355e-05
0.00108496
3.7473e-06
1.9815e-05
0.00109817
5.67722e-06
1.23798e-05
0.00110909
2.36407e-06
6.12446e-06
0.00107464
6.5155e-06
0.000878154
1.1647e-06
2.82214e-05
0.000711076
9.58723e-08
3.76166e-05
0.00101056
7.36052e-06
3.95336e-05
0.00106748
4.15328e-06
3.90995e-05
0.00107369
6.2534e-06
3.73118e-05
0.00107741
4.52453e-06
3.3463e-05
0.00108712
3.88218e-06
2.69388e-05
0.00110289
5.85035e-06
1.8125e-05
0.00111548
2.46054e-06
9.34342e-06
0.00108255
6.45376e-06
0.000890437
1.60726e-06
3.44542e-05
0.00067819
9.04779e-07
4.69955e-05
0.000995437
7.90778e-06
5.02637e-05
0.00106087
4.96581e-06
5.024e-05
0.00107091
6.79223e-06
4.84223e-05
0.0010775
5.08134e-06
4.39838e-05
0.00108998
4.22506e-06
3.61974e-05
0.00110892
6.17194e-06
2.55083e-05
0.00112409
2.73334e-06
1.35236e-05
0.00109383
6.56671e-06
0.00090709
2.2706e-06
4.20559e-05
0.000637704
2.35941e-06
5.91062e-05
0.0009759
8.98193e-06
6.40721e-05
0.00105272
6.24888e-06
6.45721e-05
0.00106753
7.69997e-06
6.27447e-05
0.00107766
5.98784e-06
5.76292e-05
0.00109369
4.87345e-06
4.82897e-05
0.00111662
6.73044e-06
3.51141e-05
0.0011356
3.26807e-06
1.89823e-05
0.00110951
6.92045e-06
0.000929468
3.26173e-06
5.10224e-05
0.000588214
4.79537e-06
7.44338e-05
0.000950191
1.08495e-05
8.17093e-05
0.00104244
8.17828e-06
8.29257e-05
0.00106338
9.14019e-06
8.11886e-05
0.00107781
7.40233e-06
7.53737e-05
0.00109832
5.97092e-06
6.4174e-05
0.00112637
7.64464e-06
4.7772e-05
0.00115082
4.19847e-06
2.62173e-05
0.00113097
7.63113e-06
0.000959448
4.72661e-06
6.11094e-05
0.000528386
8.56342e-06
9.32907e-05
0.00091592
1.38508e-05
0.000103996
0.00102897
1.10481e-05
0.000106304
0.00105812
1.13579e-05
0.000104913
0.00107768
9.53268e-06
9.85337e-05
0.00110384
7.71428e-06
8.52327e-05
0.00113853
9.08923e-06
6.47174e-05
0.00117077
5.68622e-06
3.5995e-05
0.00116013
8.86417e-06
0.00099971
6.872e-06
7.16073e-05
0.000457217
1.39064e-05
0.000115489
0.000869866
1.83734e-05
0.000131625
0.00101031
1.51652e-05
0.000135888
0.00105094
1.46715e-05
0.000135415
0.00107669
1.26702e-05
0.000128929
0.00110987
1.03784e-05
0.0001135
0.00115333
1.13118e-05
8.78687e-05
0.00119664
7.9685e-06
4.95181e-05
0.00119971
1.0861e-05
0.00105422
9.98016e-06
8.11237e-05
0.000374613
2.05188e-05
0.000139935
0.000807973
2.45918e-05
0.000165012
0.000982726
2.10259e-05
0.000173086
0.00104004
1.96025e-05
0.000174654
0.0010737
1.72481e-05
0.000169082
0.00111546
1.43362e-05
0.00015203
0.00117047
1.46253e-05
0.000120378
0.00122958
1.13475e-05
6.90398e-05
0.00125342
1.39992e-05
0.00112932
1.44447e-05
8.71038e-05
0.000282316
2.68926e-05
0.000163745
0.000725723
3.20422e-05
0.000203519
0.000939941
2.9101e-05
0.000219338
0.00102164
2.6859e-05
0.000225193
0.00106653
2.3813e-05
0.000222558
0.00111868
2.00244e-05
0.000205453
0.00118872
1.93999e-05
0.000167491
0.00127029
1.61656e-05
9.83078e-05
0.00132664
1.87427e-05
0.00123533
2.08111e-05
8.56707e-05
0.000186974
2.99738e-05
0.000181719
0.000619739
3.86541e-05
0.000244418
0.00087276
3.93497e-05
0.000275373
0.000988605
3.73231e-05
0.000290094
0.0010512
3.30946e-05
0.000294202
0.00111613
2.78493e-05
0.0002808
0.00120489
2.58826e-05
0.00023846
0.0013176
2.26574e-05
0.000147198
0.00142465
2.55389e-05
0.00139311
2.97946e-05
7.10113e-05
0.000111931
2.9277e-05
0.000187849
0.000493848
4.36866e-05
0.000282812
0.000773095
5.12036e-05
0.000340339
0.000930331
5.10766e-05
0.000372563
0.00102059
4.5211e-05
0.000390404
0.00110249
3.74431e-05
0.00038866
0.00121277
3.34033e-05
0.000348848
0.00136628
3.01524e-05
0.000231651
0.0015532
3.42813e-05
0.00164044
4.18703e-05
4.97091e-05
6.99614e-05
2.04122e-05
0.000176478
0.000365921
4.69305e-05
0.000306106
0.00064542
6.3107e-05
0.000405405
0.000837969
6.64174e-05
0.000472762
0.000963164
5.88925e-05
0.000518001
0.00106974
4.71886e-05
0.000544395
0.00120102
3.9724e-05
0.000519524
0.00140878
3.59984e-05
0.000418613
0.00167478
4.3557e-05
0.0020855
5.71442e-05
6.47001e-05
-1.26612e-05
2.32218e-05
0.000178197
3.1614e-05
0.000244741
0.00031792
5.64945e-05
0.00050778
0.000453646
6.40975e-05
0.000722674
0.00057246
5.70726e-05
0.000877695
0.000672434
4.31325e-05
0.00100851
0.000768505
3.24051e-05
0.00114421
0.000800182
2.81283e-05
0.00141731
0.000795359
4.13468e-05
0.00171813
7.15297e-05
0.00292669
5.75277e-05
0.000957165
8.35095e-06
2.14536e-05
0.00105021
6.52923e-06
6.50466e-06
0.0010299
6.44477e-06
2.19878e-06
0.00101944
6.45712e-06
5.66134e-08
0.00101738
6.47029e-06
-2.09347e-06
0.00101739
6.46947e-06
-6.42553e-06
0.00101946
6.45412e-06
-2.15031e-05
0.00103002
6.44159e-06
-5.79757e-05
0.00105062
6.54293e-06
0.000956766
8.3713e-06
4.11908e-05
0.000926365
1.32039e-05
2.29539e-05
0.0010782
1.26192e-05
1.25236e-05
0.00105077
1.23358e-05
5.75709e-06
0.00103677
1.24628e-05
1.77605e-07
0.00103367
1.2519e-05
-5.42707e-06
0.0010337
1.25161e-05
-1.22727e-05
0.00103687
1.24545e-05
-2.27346e-05
0.00105089
1.23329e-05
-4.05585e-05
0.00107818
1.26573e-05
0.000926639
1.32242e-05
2.51603e-05
0.000906367
1.13981e-05
1.66102e-05
0.00109252
1.10898e-05
1.08892e-05
0.00106224
1.05477e-05
5.60905e-06
0.00104772
1.06062e-05
3.779e-07
0.00104468
1.06644e-05
-4.88428e-06
0.00104475
1.06605e-05
-1.02569e-05
0.0010479
1.05979e-05
-1.60628e-05
0.00106242
1.05452e-05
-2.4515e-05
0.00109242
1.11154e-05
0.000907289
1.13914e-05
1.48731e-05
0.00089404
9.09281e-06
1.33325e-05
0.00109897
9.01433e-06
8.96273e-06
0.00107103
8.44793e-06
4.5501e-06
0.00105641
8.40534e-06
5.86278e-07
0.00105307
8.47944e-06
-3.41887e-06
0.00105318
8.47516e-06
-7.94967e-06
0.0010567
8.39487e-06
-1.2434e-05
0.0010713
8.44053e-06
-1.40745e-05
0.00109901
9.0186e-06
0.000895732
9.07599e-06
8.54055e-06
0.000886563
7.62003e-06
1.17451e-05
0.00110039
7.90313e-06
8.1948e-06
0.00107821
7.46743e-06
4.14779e-06
0.00106402
7.45584e-06
8.34942e-07
0.0010601
7.60191e-06
-2.53287e-06
0.00106026
7.5998e-06
-6.74273e-06
0.00106446
7.44709e-06
-1.04543e-05
0.00107863
7.45821e-06
-7.41715e-06
0.00110066
7.88825e-06
0.000889314
7.60803e-06
5.01214e-06
0.000881614
6.43677e-06
1.03333e-05
0.00109953
6.96628e-06
7.50304e-06
0.00108399
6.51178e-06
4.04745e-06
0.00107047
6.5969e-06
1.13929e-06
0.00106609
6.80916e-06
-1.84257e-06
0.00106631
6.80646e-06
-5.51212e-06
0.00107112
6.58687e-06
-8.56649e-06
0.00108463
6.48367e-06
-3.56205e-06
0.00110012
6.91293e-06
0.000885754
6.45461e-06
3.24532e-06
0.000877806
5.40732e-06
9.18674e-06
0.0010981
6.06478e-06
6.74657e-06
0.00108903
5.41569e-06
4.00203e-06
0.00107599
5.60693e-06
1.51649e-06
0.00107129
5.82208e-06
-1.06632e-06
0.00107161
5.8165e-06
-4.09203e-06
0.00107692
5.59473e-06
-6.85547e-06
0.00109
5.3659e-06
-1.40734e-06
0.00109916
5.96449e-06
0.000883729
5.44841e-06
2.38612e-06
0.000874423
4.62598e-06
8.42826e-06
0.00109662
5.36692e-06
6.23431e-06
0.00109365
4.46686e-06
4.12691e-06
0.00108087
4.78643e-06
1.992e-06
0.00107596
4.94594e-06
-2.7175e-07
0.00107641
4.94192e-06
-2.76527e-06
0.00108217
4.77535e-06
-5.43971e-06
0.00109511
4.4169e-06
-8.74472e-08
0.00109845
5.25137e-06
0.000882534
4.66904e-06
1.92196e-06
0.000871112
4.08122e-06
8.00449e-06
0.00109509
4.90081e-06
6.0859e-06
0.00109783
3.75686e-06
4.49841e-06
0.00108524
4.23775e-06
2.6121e-06
0.00108025
4.31478e-06
5.32317e-07
0.00108087
4.30777e-06
-1.55726e-06
0.001087
4.22127e-06
-4.14896e-06
0.00109999
3.70414e-06
8.97985e-07
0.00109815
4.78966e-06
0.000881836
4.14322e-06
1.73683e-06
0.000867699
3.62252e-06
8.05381e-06
0.0010933
4.64734e-06
6.31872e-06
0.00110171
3.26108e-06
5.10891e-06
0.00108918
3.86853e-06
3.42232e-06
0.00108432
3.87519e-06
1.40244e-06
0.00108507
3.83683e-06
-3.09182e-07
0.00109143
3.86683e-06
-2.83836e-06
0.00110462
3.1469e-06
1.78479e-06
0.00109822
4.45765e-06
0.000881589
3.78907e-06
1.89296e-06
0.000863842
3.30813e-06
8.31112e-06
0.00109129
4.47381e-06
6.84076e-06
0.00110524
2.83403e-06
6.03683e-06
0.00109279
3.5859e-06
4.39486e-06
0.00108813
3.51101e-06
2.34116e-06
0.00108919
3.46218e-06
1.10847e-06
0.001096
3.7415e-06
-1.45806e-06
0.00110923
2.73394e-06
2.69979e-06
0.0010986
4.21664e-06
0.000881888
3.50915e-06
2.52863e-06
0.000859119
3.01566e-06
8.73053e-06
0.00108927
4.265e-06
7.66394e-06
0.00110817
2.45651e-06
7.28813e-06
0.00109596
3.36224e-06
5.70083e-06
0.00109161
3.14293e-06
3.72693e-06
0.00109309
3.10043e-06
2.48495e-06
0.00110032
3.63934e-06
-2.88945e-07
0.00111394
2.41507e-06
3.65353e-06
0.00109941
4.17407e-06
0.000882836
3.16126e-06
3.63144e-06
0.000853245
2.63535e-06
9.6525e-06
0.00108711
4.1917e-06
8.94399e-06
0.00111056
2.18715e-06
8.91773e-06
0.00109873
3.19095e-06
7.48847e-06
0.00109482
2.84643e-06
5.6269e-06
0.00109674
2.74794e-06
4.0664e-06
0.00110431
3.31798e-06
1.14238e-06
0.00111854
2.00235e-06
4.36473e-06
0.00110056
4.19138e-06
0.000884594
2.89279e-06
5.10432e-06
0.000845801
2.38976e-06
1.10618e-05
0.00108475
4.14131e-06
1.07669e-05
0.00111248
1.96775e-06
1.10692e-05
0.00110117
3.08714e-06
9.77523e-06
0.00109783
2.64285e-06
7.90783e-06
0.00110034
2.49724e-06
6.22994e-06
0.00110842
3.13581e-06
3.13098e-06
0.00112318
1.59896e-06
4.9547e-06
0.00110237
4.01023e-06
0.000887153
2.78495e-06
7.00066e-06
0.000836315
2.24428e-06
1.30538e-05
0.00108207
4.10109e-06
1.32712e-05
0.00111388
1.81758e-06
1.38951e-05
0.00110329
3.02412e-06
1.27122e-05
0.00110068
2.50819e-06
1.07545e-05
0.00110397
2.32258e-06
8.89782e-06
0.00111276
3.04615e-06
5.37142e-06
0.0011282
1.30188e-06
5.82707e-06
0.00110519
3.90961e-06
0.00089076
2.72067e-06
9.46454e-06
0.000824278
2.14516e-06
1.58942e-05
0.00107878
4.12141e-06
1.66544e-05
0.0011147
1.76547e-06
1.75902e-05
0.0011051
3.00869e-06
1.65007e-05
0.00110341
2.43857e-06
1.43734e-05
0.00110773
2.20901e-06
1.22076e-05
0.00111744
3.01645e-06
8.06117e-06
0.00113378
1.09776e-06
7.06931e-06
0.00110918
3.87606e-06
0.000895797
2.69164e-06
1.26336e-05
0.00080904
2.13854e-06
1.97508e-05
0.00107459
4.21195e-06
2.11518e-05
0.00111489
1.8283e-06
2.23982e-05
0.00110659
3.05482e-06
2.13878e-05
0.00110605
2.44295e-06
1.90085e-05
0.00111168
2.15674e-06
1.6359e-05
0.00112262
3.0347e-06
1.14116e-05
0.00114013
9.84437e-07
8.75627e-06
0.00111461
3.87601e-06
0.000902688
2.72554e-06
1.66531e-05
0.000789776
2.27763e-06
2.4874e-05
0.0010691
4.39872e-06
2.70585e-05
0.00111432
2.03681e-06
2.86302e-05
0.00110776
3.1915e-06
2.76924e-05
0.00110863
2.54561e-06
2.4968e-05
0.00111595
2.17999e-06
2.1631e-05
0.0011285
3.11115e-06
1.56395e-05
0.0011475
9.61553e-07
1.09868e-05
0.00112186
3.90606e-06
0.000911986
2.84e-06
2.16973e-05
0.000765544
2.59823e-06
3.16355e-05
0.00106176
4.74311e-06
3.4749e-05
0.00111289
2.44653e-06
3.66773e-05
0.0011086
3.46216e-06
3.58152e-05
0.00111121
2.78439e-06
3.26504e-05
0.00112066
2.31097e-06
2.84058e-05
0.00113531
3.26799e-06
2.10179e-05
0.0011563
1.02637e-06
1.38849e-05
0.00113143
3.99191e-06
0.000924406
3.05945e-06
2.791e-05
0.000735305
3.19949e-06
4.04426e-05
0.00105176
5.34148e-06
4.46864e-05
0.00111046
3.12537e-06
4.70248e-05
0.0011091
3.92746e-06
4.62597e-05
0.00111383
3.20716e-06
4.25643e-05
0.00112597
2.59598e-06
3.71495e-05
0.00114333
3.54164e-06
2.79324e-05
0.00116701
1.22697e-06
1.76727e-05
0.00114406
4.17439e-06
0.000940913
3.42302e-06
3.53579e-05
0.000697998
4.27417e-06
5.17255e-05
0.00103805
6.29916e-06
5.74211e-05
0.00110683
4.15398e-06
6.02653e-05
0.00110926
4.67335e-06
5.96544e-05
0.00111651
3.88671e-06
5.53631e-05
0.001132
3.10343e-06
4.84774e-05
0.00115293
3.99387e-06
3.69034e-05
0.00118019
1.63941e-06
2.26442e-05
0.00116071
4.5117e-06
0.000962819
3.98646e-06
4.39997e-05
0.00065274
6.01789e-06
6.59296e-05
0.00101915
7.78565e-06
7.35904e-05
0.00110167
5.65367e-06
7.71005e-05
0.00110904
5.8205e-06
7.67879e-05
0.00111928
4.9275e-06
7.19185e-05
0.00113889
3.92838e-06
6.32631e-05
0.0011645
4.7074e-06
4.8676e-05
0.00119662
2.33073e-06
2.92643e-05
0.00118265
5.07976e-06
0.000991953
4.84514e-06
5.35823e-05
0.000599085
8.59978e-06
8.32523e-05
0.000993308
1.00012e-05
9.38344e-05
0.00109432
7.79127e-06
9.8347e-05
0.00110834
7.52735e-06
9.86405e-05
0.00112203
6.46645e-06
9.33922e-05
0.00114664
5.19279e-06
8.27646e-05
0.00117841
5.78398e-06
6.43875e-05
0.00121728
3.38403e-06
3.82178e-05
0.0012117
5.96523e-06
0.0010309
6.12994e-06
6.35249e-05
0.000537316
1.21165e-05
0.000103556
0.000958466
1.31605e-05
0.000118693
0.00108359
1.07341e-05
0.000124911
0.00110679
9.98017e-06
0.000126421
0.00112449
8.67302e-06
0.000121344
0.00115502
7.04366e-06
0.000108792
0.0011949
7.34569e-06
8.57837e-05
0.00124332
4.91583e-06
5.06301e-05
0.00125041
7.2837e-06
0.00108352
7.97857e-06
7.29067e-05
0.000468489
1.64075e-05
0.000125971
0.000912596
1.73744e-05
0.000148372
0.00106752
1.46742e-05
0.000157746
0.00110359
1.34036e-05
0.000161603
0.00112611
1.17452e-05
0.000157874
0.00116343
9.63359e-06
0.000144033
0.00121384
9.502e-06
0.000115723
0.00127593
7.02883e-06
6.85884e-05
0.00130238
9.15184e-06
0.00115601
1.05307e-05
8.03839e-05
0.000394248
2.07181e-05
0.000148656
0.000853886
2.24587e-05
0.000182363
0.00104313
1.97617e-05
0.00019767
0.00109711