/*--------------------------------*- C++ -*----------------------------------*\
| =========                 |                                                 |
| \\      /  F ield         | OpenFOAM: The Open Source CFD Toolbox           |
|  \\    /   O peration     | Version:  4.1                                   |
|   \\  /    A nd           | Web:      www.OpenFOAM.org                      |
|    \\/     M anipulation  |                                                 |
\*---------------------------------------------------------------------------*/
FoamFile
{
    version     2.0;
    format      ascii;
    class       volVectorField;
    location    "300";
    object      U;
}
// * * * * * * * * * * * * * * * * * * * * * * * * * * * * * * * * * * * * * //

dimensions      [0 1 -1 0 0 0 0];

internalField   nonuniform List<vector> 
12000
(
(0.0919762 -0.00968819 0.00968264)
(0.0965725 -0.00181961 0.0106824)
(0.0959835 -0.00135933 0.0110766)
(0.0955945 -0.000560733 0.0110926)
(0.095498 -0.000151395 0.0111215)
(0.0954982 0.000134436 0.0111215)
(0.0955949 0.000545051 0.0110929)
(0.095984 0.00134487 0.0110781)
(0.0965738 0.00180522 0.0106842)
(0.0919792 0.00970152 0.00968652)
(0.0861753 -0.00379593 0.00378323)
(0.0951029 -0.00254523 0.00528411)
(0.0937062 -0.00197279 0.00565073)
(0.0926344 -0.000885956 0.0056111)
(0.0922996 -0.000278726 0.00564301)
(0.0923011 0.000235286 0.00564265)
(0.0926383 0.000844771 0.00560966)
(0.0937112 0.00193163 0.00564938)
(0.0951073 0.00249922 0.00529595)
(0.086181 0.00380107 0.00379897)
(0.0822262 0.000797968 -0.000819472)
(0.0930848 -0.00256497 0.000213194)
(0.0918567 -0.00165147 0.000441731)
(0.0906281 -0.000795942 0.0004279)
(0.0901514 -0.00030059 0.0004628)
(0.0901556 0.000223469 0.000461843)
(0.0906393 0.000723608 0.000423532)
(0.09187 0.00158407 0.000430895)
(0.093096 0.0025062 0.000218099)
(0.0822772 -0.000815437 -0.000811832)
(0.0794818 0.00273622 -0.00276763)
(0.0906495 -0.00251158 -0.00250466)
(0.0900398 -0.00117885 -0.00239904)
(0.0890221 -0.000670592 -0.00232056)
(0.0885183 -0.000302438 -0.00227197)
(0.0885266 0.000183477 -0.00227358)
(0.0890453 0.000560398 -0.00232746)
(0.090069 0.00107866 -0.00241781)
(0.090674 0.00243255 -0.00249856)
(0.0795917 -0.00276657 -0.00275062)
(0.0780557 0.0032275 -0.00327086)
(0.088887 -0.00242703 -0.00359487)
(0.0889553 -0.000793204 -0.00366277)
(0.0881676 -0.000629861 -0.0034793)
(0.0876557 -0.000315483 -0.00341677)
(0.0876699 0.000142738 -0.00341879)
(0.088208 0.000471353 -0.00348583)
(0.0890091 0.000649677 -0.00367787)
(0.0889359 0.00232447 -0.00359523)
(0.0782476 -0.003291 -0.00326291)
(0.0772663 0.00311774 -0.00317653)
(0.0877535 -0.0023024 -0.00387726)
(0.0884476 -0.000493188 -0.00413558)
(0.0877917 -0.000637355 -0.00386522)
(0.0872585 -0.000328263 -0.00380087)
(0.0872803 8.69857e-05 -0.00380153)
(0.0878554 0.000416852 -0.00386802)
(0.0885365 0.00029774 -0.00413993)
(0.0878318 0.00216912 -0.0038641)
(0.0775685 -0.00322016 -0.00317897)
(0.0765694 0.0027948 -0.00287395)
(0.0868872 -0.00216718 -0.00377903)
(0.0881523 -0.000273941 -0.00421723)
(0.0875608 -0.000665067 -0.00388102)
(0.0870181 -0.000336633 -0.00382857)
(0.0870505 6.41655e-06 -0.00382868)
(0.0876577 0.000364805 -0.0038812)
(0.0882943 1.02476e-05 -0.00421551)
(0.087003 0.00198675 -0.00375216)
(0.0770198 -0.00293377 -0.00287539)
(0.0758023 0.00241448 -0.00252063)
(0.0861094 -0.00204037 -0.0035247)
(0.0878922 -0.000136824 -0.00411093)
(0.0873278 -0.000713764 -0.00372466)
(0.0868039 -0.000348578 -0.00369241)
(0.0868512 -9.59582e-05 -0.00369589)
(0.0874711 0.000312279 -0.00372447)
(0.0881097 -0.000223747 -0.00411318)
(0.0862787 0.00179082 -0.00352377)
(0.0764472 -0.0026003 -0.00251911)
(0.0749896 0.0020432 -0.00218486)
(0.0854069 -0.00192659 -0.00324766)
(0.0876523 -7.11769e-05 -0.00393536)
(0.0870914 -0.000788999 -0.00351034)
(0.086608 -0.000374065 -0.0035029)
(0.0866766 -0.000215598 -0.00350767)
(0.087295 0.000256364 -0.00350951)
(0.0879715 -0.000414553 -0.00394491)
(0.0856618 0.00158753 -0.00326061)
(0.0758961 -0.00229426 -0.00218483)
(0.0741507 0.0017032 -0.00189098)
(0.0847848 -0.00183428 -0.0029825)
(0.087434 -6.2626e-05 -0.0037457)
(0.0868661 -0.000889761 -0.00328764)
(0.0864507 -0.000422836 -0.00330039)
(0.0865399 -0.000359009 -0.00330504)
(0.0871499 0.000183469 -0.00329464)
(0.0878844 -0.000567814 -0.0037609)
(0.0851492 0.00138028 -0.00298457)
(0.075413 -0.00203725 -0.00189313)
(0.0732754 0.00139301 -0.0016415)
(0.08426 -0.00177369 -0.00270395)
(0.0872501 -0.00011086 -0.0035335)
(0.0866371 -0.0010113 -0.00306887)
(0.0863608 -0.000504081 -0.00307555)
(0.0864239 -0.000553081 -0.00310243)
(0.087023 7.8546e-05 -0.00309372)
(0.0878329 -0.000697312 -0.00357269)
(0.0847303 0.00116902 -0.0027214)
(0.0750106 -0.00182418 -0.0016383)
(0.0723455 0.00110442 -0.00143337)
(0.0837712 -0.00174721 -0.00243926)
(0.0870462 -0.000213518 -0.00331338)
(0.0864453 -0.00115992 -0.00284763)
(0.086236 -0.000618307 -0.00286415)
(0.0863633 -0.000759297 -0.00288528)
(0.087165 -6.02113e-05 -0.00278554)
(0.0878598 -0.000876328 -0.00334979)
(0.0843861 0.000933711 -0.00249914)
(0.0746672 -0.00164826 -0.00141004)
(0.0713408 0.000824853 -0.00125846)
(0.0832871 -0.00176743 -0.00220992)
(0.0867999 -0.000373652 -0.00310525)
(0.0862103 -0.0013522 -0.00265769)
(0.0860991 -0.000779011 -0.002675)
(0.0862873 -0.000978591 -0.00269)
(0.0870683 -0.000246055 -0.00255204)
(0.0878809 -0.0010805 -0.00312174)
(0.0842977 0.000701231 -0.00222446)
(0.074395 -0.00152116 -0.00121603)
(0.0702283 0.000543971 -0.00111314)
(0.0828137 -0.00185254 -0.00201171)
(0.0865134 -0.00060714 -0.00291508)
(0.0859644 -0.00160453 -0.00248552)
(0.0859578 -0.00101477 -0.00250636)
(0.0862274 -0.00126847 -0.00251783)
(0.0869871 -0.000490342 -0.00236363)
(0.0879369 -0.00127683 -0.00290986)
(0.0841665 0.00044976 -0.00198364)
(0.0742308 -0.00143268 -0.00104786)
(0.0689579 0.000244938 -0.000987953)
(0.0823195 -0.00201313 -0.00184419)
(0.0861839 -0.000922245 -0.00274299)
(0.085694 -0.00193677 -0.00233303)
(0.0858086 -0.00134804 -0.00235398)
(0.08618 -0.00164194 -0.0023684)
(0.0869158 -0.000812822 -0.00220684)
(0.0880389 -0.00152119 -0.00272573)
(0.0841191 0.000170366 -0.00179509)
(0.0742022 -0.00136614 -0.00089048)
(0.0674636 -8.60154e-05 -0.000876917)
(0.0817876 -0.00226823 -0.0016943)
(0.0857918 -0.00134327 -0.00258524)
(0.085398 -0.00237612 -0.00220119)
(0.0856516 -0.0018018 -0.00221748)
(0.0861512 -0.0021195 -0.00223779)
(0.0868887 -0.00123658 -0.00207333)
(0.0882042 -0.00183928 -0.00256431)
(0.0841827 -0.000152447 -0.00164308)
(0.0743181 -0.0013285 -0.000747931)
(0.0656647 -0.000460809 -0.000776673)
(0.0811768 -0.00264221 -0.00155312)
(0.0853252 -0.00190557 -0.00243194)
(0.0850673 -0.00295487 -0.00208379)
(0.0854841 -0.00240714 -0.00209135)
(0.0861518 -0.00273077 -0.00211825)
(0.0869277 -0.00179137 -0.00195518)
(0.0884579 -0.0022581 -0.00241772)
(0.0843993 -0.0005376 -0.00151769)
(0.0746042 -0.00132705 -0.000617809)
(0.0634575 -0.000893051 -0.000680718)
(0.080436 -0.00316329 -0.00141289)
(0.0847656 -0.00264987 -0.00227669)
(0.0846915 -0.00371345 -0.0019752)
(0.0852988 -0.00320525 -0.0019709)
(0.0861839 -0.0035153 -0.00200502)
(0.0870518 -0.00251473 -0.00184587)
(0.0888278 -0.00280897 -0.0022788)
(0.0848206 -0.00100808 -0.00140489)
(0.0751023 -0.00137055 -0.000495177)
(0.0607038 -0.00139578 -0.00057879)
(0.0794764 -0.00386437 -0.00126496)
(0.0840746 -0.00362628 -0.00210891)
(0.0842527 -0.00470276 -0.00186833)
(0.0850883 -0.00424844 -0.00184847)
(0.0862491 -0.0045243 -0.00189038)
(0.0872801 -0.00345507 -0.00173815)
(0.0893449 -0.00353314 -0.00214097)
(0.0854907 -0.00159563 -0.00129837)
(0.0758677 -0.00147042 -0.000373557)
(0.0572293 -0.00197809 -0.00045518)
(0.0781618 -0.00478294 -0.00109724)
(0.0832069 -0.00489776 -0.00192162)
(0.0837235 -0.00598602 -0.00175359)
(0.0848329 -0.00560218 -0.00171641)
(0.0863414 -0.00582501 -0.00176652)
(0.0876271 -0.00467725 -0.00162581)
(0.0900331 -0.00448651 -0.00199545)
(0.0864757 -0.00234053 -0.00118922)
(0.0769745 -0.00164061 -0.000244065)
(0.0528293 -0.002636 -0.000289483)
(0.0762926 -0.00595212 -0.000890149)
(0.0821025 -0.00653799 -0.00170042)
(0.0830635 -0.0076431 -0.0016188)
(0.084501 -0.00734763 -0.001566)
(0.086445 -0.00750373 -0.0016227)
(0.0881069 -0.00626695 -0.00149866)
(0.0909279 -0.00574507 -0.00183288)
(0.087848 -0.00329845 -0.00106844)
(0.0785183 -0.00190316 -9.71901e-05)
(0.0472832 -0.0033397 -5.81767e-05)
(0.0735787 -0.00738449 -0.0006169)
(0.0806495 -0.0086207 -0.00142398)
(0.082215 -0.00977014 -0.00144626)
(0.0840417 -0.00958366 -0.00138664)
(0.0865247 -0.00967024 -0.00144652)
(0.0887211 -0.00833954 -0.00134348)
(0.0920735 -0.00741705 -0.00164038)
(0.0897 -0.00454922 -0.000921418)
(0.0806322 -0.00228971 8.11483e-05)
(0.040386 -0.00401318 0.000257934)
(0.0696301 -0.00904337 -0.000248964)
(0.0786597 -0.0111926 -0.00106271)
(0.0810815 -0.0124739 -0.00121057)
(0.0833793 -0.0124292 -0.00116006)
(0.0865164 -0.0124667 -0.00121872)
(0.0894516 -0.011053 -0.0011415)
(0.0935172 -0.00965964 -0.00140105)
(0.0921479 -0.0062138 -0.000731242)
(0.0834977 -0.00285341 0.000307977)
(0.0320213 -0.00450319 0.000655068)
(0.0639654 -0.0107885 0.00023051)
(0.075812 -0.0142178 -0.000583001)
(0.0795012 -0.0158542 -0.000875226)
(0.0823871 -0.0160288 -0.000863812)
(0.0863012 -0.0160778 -0.00091831)
(0.090235 -0.0146282 -0.000868176)
(0.0952943 -0.0127106 -0.00109212)
(0.0953445 -0.00848185 -0.000474745)
(0.0873934 -0.00367261 0.000610526)
(0.0222838 -0.00454606 0.00106931)
(0.0560555 -0.0123082 0.000798375)
(0.0715171 -0.0174847 3.32403e-05)
(0.0771333 -0.0199453 -0.000394915)
(0.0808539 -0.0205486 -0.000459597)
(0.0856875 -0.0207423 -0.000514754)
(0.0909422 -0.0193716 -0.000491015)
(0.097423 -0.0169359 -0.000682246)
(0.0994979 -0.011675 -0.000120123)
(0.092718 -0.00490201 0.00102513)
(0.011673 -0.0037051 0.0012818)
(0.0455605 -0.0130131 0.00132324)
(0.0649765 -0.0204691 0.000798092)
(0.0733686 -0.0246052 0.000308319)
(0.0784057 -0.0261639 0.000115697)
(0.0843461 -0.0267878 2.74099e-05)
(0.091285 -0.0257276 2.81541e-05)
(0.0998068 -0.0229118 -0.000128813)
(0.10487 -0.0163349 0.000382316)
(0.100266 -0.00676457 0.00160011)
(0.00119037 -0.00123335 0.00121484)
(0.0322814 -0.0119878 0.00152162)
(0.0548782 -0.0222471 0.00158456)
(0.0669559 -0.0292956 0.00130387)
(0.0742789 -0.0328819 0.000992911)
(0.0817778 -0.0345776 0.000787007)
(0.0908499 -0.034295 0.000735384)
(0.102281 -0.0315565 0.000617869)
(0.111865 -0.0235401 0.00110499)
(0.111107 -0.00997444 0.00243687)
(-0.00370759 0.00190096 0.00171153)
(0.0182671 -0.00827302 0.00198732)
(0.0406712 -0.0215381 0.00251199)
(0.056313 -0.0330304 0.00258429)
(0.0670291 -0.0404356 0.00224837)
(0.0768718 -0.044548 0.00186645)
(0.0885314 -0.0459731 0.00170006)
(0.103907 -0.0442918 0.00160166)
(0.120223 -0.0353232 0.00211729)
(0.129076 -0.0151295 0.00360757)
(-0.00650757 0.000212373 0.000578075)
(0.000600588 -0.00471103 0.00222871)
(0.0202009 -0.0172922 0.00402576)
(0.0390143 -0.0328695 0.00470961)
(0.0543534 -0.0462888 0.00434998)
(0.0682455 -0.0558544 0.00356733)
(0.0835579 -0.0616086 0.00305173)
(0.104368 -0.0633795 0.00286787)
(0.130076 -0.0562241 0.00351434)
(0.156573 -0.0283215 0.00540394)
(-0.0119883 -0.00401939 -0.00191726)
(-0.0139488 -0.0132647 -0.0019712)
(-0.00325601 -0.0219988 0.00102567)
(0.0132075 -0.0332462 0.00462661)
(0.0308165 -0.0483698 0.00632754)
(0.0491526 -0.064532 0.00611856)
(0.0685381 -0.0798923 0.00525975)
(0.0973447 -0.0896285 0.00461539)
(0.130285 -0.100728 0.00499904)
(0.217333 -0.0464486 0.00786288)
(0.096569 -0.0106874 0.00181127)
(0.10131 -0.00138912 0.00138264)
(0.100911 -0.00123358 0.00149471)
(0.100637 -0.000465549 0.00146997)
(0.100594 -0.00011577 0.00148311)
(0.100594 0.00010346 0.00148305)
(0.100637 0.00045468 0.00146967)
(0.100913 0.00122508 0.0014937)
(0.101317 0.00138258 0.00138499)
(0.0965702 0.0107851 0.00182134)
(0.0950904 -0.00529536 0.00252531)
(0.108641 -0.00241529 0.00239721)
(0.106234 -0.00200776 0.00251484)
(0.105051 -0.000787063 0.00246007)
(0.10482 -0.000244807 0.00249325)
(0.104822 0.000207133 0.002493)
(0.105057 0.000752706 0.00245824)
(0.106248 0.00197137 0.00250924)
(0.108668 0.00235668 0.00239432)
(0.095068 0.00535039 0.0025319)
(0.0930567 -0.000231784 0.00253253)
(0.11212 -0.00290868 0.00287867)
(0.10929 -0.00172087 0.00289573)
(0.107679 -0.000665767 0.00282259)
(0.107336 -0.000282092 0.00286348)
(0.10734 0.000205595 0.00286316)
(0.10769 0.000593255 0.00282107)
(0.109304 0.00165146 0.0028935)
(0.112112 0.00284964 0.00288157)
(0.0931 0.000236337 0.00253181)
(0.0905963 0.00247774 0.00246515)
(0.112431 -0.00327625 0.00323383)
(0.110108 -0.00122172 0.00315663)
(0.108557 -0.000529873 0.00310148)
(0.108207 -0.000303304 0.00314928)
(0.108215 0.000185343 0.00314908)
(0.108579 0.000419311 0.00310013)
(0.110132 0.00111973 0.00315569)
(0.112433 0.0032023 0.00324012)
(0.0907064 -0.00250893 0.00245685)
(0.0887979 0.00355729 0.00236302)
(0.111613 -0.00351248 0.00345492)
(0.110054 -0.000794212 0.00329686)
(0.108684 -0.000524255 0.00329336)
(0.10833 -0.000335908 0.00334702)
(0.108342 0.000168731 0.00334681)
(0.108718 0.000369701 0.0032915)
(0.110093 0.000650494 0.00329543)
(0.111623 0.00342184 0.00346563)
(0.0890109 -0.00367521 0.00234921)
(0.0876142 0.00382481 0.00221556)
(0.110789 -0.00361728 0.00354102)
(0.109964 -0.000447696 0.0032951)
(0.10873 -0.000589015 0.00334972)
(0.10834 -0.000358393 0.00339625)
(0.108358 0.000130189 0.00339491)
(0.108783 0.00037936 0.00334699)
(0.110025 0.00024876 0.00329163)
(0.110823 0.00348653 0.00354155)
(0.087958 -0.00400224 0.00220409)
(0.0866787 0.00370698 0.00205086)
(0.110029 -0.00364108 0.00354075)
(0.109887 -0.000181989 0.00321791)
(0.10876 -0.000675108 0.00332537)
(0.108327 -0.000361112 0.00334771)
(0.108352 5.54171e-05 0.00334551)
(0.108836 0.00039786 0.0033224)
(0.109971 -8.80261e-05 0.00321059)
(0.11013 0.00345598 0.00353053)
(0.0871887 -0.00391684 0.00204498)
(0.0858067 0.00342675 0.00188494)
(0.109315 -0.00361801 0.00348506)
(0.109766 -5.58591e-07 0.00311204)
(0.108739 -0.000777556 0.00326975)
(0.108276 -0.000353512 0.00325519)
(0.108311 -5.0198e-05 0.00325498)
(0.108842 0.000417295 0.00326483)
(0.109885 -0.000354085 0.00310118)
(0.109498 0.00339022 0.00349299)
(0.0865365 -0.00369435 0.00188277)
(0.0849785 0.00311543 0.00171936)
(0.108657 -0.00357803 0.00340282)
(0.109613 0.000100883 0.00299074)
(0.108672 -0.000898828 0.00319472)
(0.108198 -0.00034921 0.00314802)
(0.108242 -0.000181028 0.00314313)
(0.108815 0.000430862 0.00318291)
(0.109786 -0.000558829 0.00297913)
(0.108887 0.00328542 0.00342552)
(0.0860097 -0.00343922 0.00172083)
(0.0841902 0.00280672 0.00156106)
(0.108045 -0.0035415 0.00331016)
(0.109461 0.000127349 0.00287405)
(0.108587 -0.00103602 0.00309384)
(0.108102 -0.000360212 0.00304285)
(0.108169 -0.000335443 0.00300839)
(0.108789 0.00042472 0.00308912)
(0.109705 -0.00072937 0.00284467)
(0.108344 0.00312476 0.00331588)
(0.0856145 -0.00317453 0.00156464)
(0.0834489 0.00247145 0.00141137)
(0.107409 -0.00347104 0.00316182)
(0.109282 7.96475e-05 0.00274119)
(0.108506 -0.00118401 0.00299988)
(0.107965 -0.000398808 0.00288221)
(0.108108 -0.000506959 0.00287469)
(0.108756 0.000381026 0.00309642)
(0.109642 -0.000882245 0.00271837)
(0.10788 0.00291597 0.00317577)
(0.0853531 -0.00293277 0.00141827)
(0.0826772 0.00213312 0.00126497)
(0.106805 -0.00339207 0.0029852)
(0.109101 -2.28965e-05 0.0025957)
(0.108393 -0.00134994 0.00288145)
(0.107882 -0.000473732 0.00271279)
(0.108042 -0.000690444 0.00272373)
(0.108536 0.00028331 0.00288102)
(0.109559 -0.000994553 0.00256566)
(0.107473 0.00274963 0.00310687)
(0.0851999 -0.00274853 0.00128819)
(0.0818241 0.00180955 0.00112762)
(0.106236 -0.00335629 0.0028189)
(0.108929 -0.000176566 0.00246499)
(0.108308 -0.00155252 0.00276671)
(0.107832 -0.000593034 0.00258178)
(0.108027 -0.000932252 0.00258327)
(0.108573 0.000170147 0.0026535)
(0.109559 -0.00111349 0.0024129)
(0.106876 0.0024449 0.0028968)
(0.0853177 -0.00252581 0.00119993)
(0.0808741 0.00149055 0.001003)
(0.105656 -0.00336865 0.00265974)
(0.108741 -0.000398012 0.00235632)
(0.108215 -0.00180014 0.00266812)
(0.107798 -0.00077425 0.00247154)
(0.108046 -0.00122247 0.00246907)
(0.108671 -9.54982e-06 0.00255531)
(0.109619 -0.00129827 0.00229681)
(0.1066 0.00208848 0.00265749)
(0.0854286 -0.00234348 0.00111685)
(0.0797675 0.0011706 0.00088851)
(0.105068 -0.0034367 0.00250833)
(0.108517 -0.000697248 0.00225765)
(0.108116 -0.00211325 0.00257427)
(0.107776 -0.00103529 0.00237313)
(0.108092 -0.00157459 0.00236478)
(0.108826 -0.000254287 0.00247992)
(0.109739 -0.00152672 0.00219568)
(0.106479 0.00177854 0.00250202)
(0.085669 -0.00222449 0.0010451)
(0.0784598 0.000829567 0.000789013)
(0.104412 -0.00357716 0.00236384)
(0.108253 -0.00109083 0.00216819)
(0.108002 -0.00251106 0.00248905)
(0.107761 -0.00139857 0.00228716)
(0.108166 -0.00200639 0.0022707)
(0.10903 -0.000586805 0.00241397)
(0.109943 -0.00181463 0.00210536)
(0.106526 0.00144989 0.00237803)
(0.086029 -0.00215069 0.000986526)
(0.0768789 0.000450837 0.0007072)
(0.103663 -0.00380799 0.00222685)
(0.107931 -0.00160417 0.00209689)
(0.107867 -0.00301766 0.00241519)
(0.10775 -0.00189161 0.00221479)
(0.108267 -0.00254246 0.0021874)
(0.109288 -0.00103392 0.00235364)
(0.110239 -0.00218222 0.00202633)
(0.106746 0.00107432 0.00227508)
(0.0865559 -0.00211808 0.000943522)
(0.0749497 1.96976e-05 0.000648323)
(0.10278 -0.00415672 0.00210692)
(0.10753 -0.00227083 0.00205083)
(0.1077 -0.00366578 0.00235649)
(0.107743 -0.00255005 0.00216146)
(0.108406 -0.00321539 0.00211791)
(0.109616 -0.00162787 0.00230119)
(0.110646 -0.00265422 0.00196135)
(0.107153 0.000621104 0.00218597)
(0.0873097 -0.00212564 0.000920708)
(0.0725733 -0.00047616 0.000622455)
(0.101714 -0.0046517 0.00201219)
(0.107042 -0.00313195 0.00203023)
(0.107494 -0.00449742 0.00231822)
(0.107741 -0.00341901 0.00213188)
(0.108593 -0.0040677 0.00206854)
(0.110031 -0.00241001 0.00226037)
(0.111192 -0.00326518 0.00191918)
(0.1078 6.41259e-05 0.00211642)
(0.0883531 -0.00217631 0.000924298)
(0.0696346 -0.00104585 0.000645193)
(0.100389 -0.00532794 0.00195893)
(0.10645 -0.00423958 0.00204381)
(0.107243 -0.00556736 0.00230846)
(0.107745 -0.00455422 0.0021322)
(0.108841 -0.0051544 0.00204678)
(0.110563 -0.003434 0.00223964)
(0.11193 -0.00406007 0.00190523)
(0.108744 -0.000629645 0.00207525)
(0.0897781 -0.002282 0.000963189)
(0.0660091 -0.00169454 0.000740488)
(0.098696 -0.00621673 0.00196632)
(0.105721 -0.00565583 0.00210303)
(0.106937 -0.00694308 0.00234067)
(0.107757 -0.00602473 0.00217342)
(0.109166 -0.00654767 0.00206388)
(0.111242 -0.00477337 0.00224918)
(0.112922 -0.0051036 0.00192539)
(0.11007 -0.00150921 0.00207038)
(0.0917017 -0.00245746 0.00104957)
(0.0615568 -0.00241557 0.000939202)
(0.0964905 -0.00734402 0.00206339)
(0.10482 -0.00744679 0.00222614)
(0.106565 -0.00870636 0.00243086)
(0.107776 -0.00791623 0.00227326)
(0.109581 -0.00834318 0.0021359)
(0.112106 -0.00652657 0.00230225)
(0.114242 -0.00648739 0.00199446)
(0.111898 -0.0026438 0.00211511)
(0.0942818 -0.00273192 0.00119985)
(0.0561425 -0.00317807 0.00126943)
(0.0935695 -0.00871463 0.00228308)
(0.103668 -0.00967527 0.00244431)
(0.106105 -0.0109534 0.00260322)
(0.107783 -0.010334 0.00245217)
(0.110091 -0.0106673 0.00228373)
(0.113196 -0.00883045 0.00241922)
(0.115981 -0.00834751 0.00213189)
(0.114391 -0.00413807 0.00223086)
(0.0977431 -0.00314855 0.00143898)
(0.0496386 -0.00390512 0.0017388)
(0.0896624 -0.010288 0.00265522)
(0.102127 -0.0123652 0.00278201)
(0.105505 -0.0137893 0.00288822)
(0.107742 -0.0134087 0.00274049)
(0.11068 -0.0136898 0.00253767)
(0.114543 -0.0118804 0.00262987)
(0.118252 -0.0108921 0.0023661)
(0.117777 -0.00615342 0.00244828)
(0.102416 -0.0037766 0.00180168)
(0.0419471 -0.00445069 0.00229683)
(0.0843829 -0.0119386 0.0031803)
(0.0999387 -0.0154804 0.00329058)
(0.104662 -0.017322 0.00333978)
(0.107578 -0.0173069 0.00318253)
(0.111292 -0.0176382 0.00293722)
(0.116157 -0.0159577 0.00297148)
(0.121181 -0.0144504 0.00273414)
(0.122385 -0.00896921 0.00282062)
(0.108785 -0.00475252 0.00234054)
(0.0331081 -0.00456612 0.00276928)
(0.077295 -0.013375 0.0037833)
(0.0966277 -0.0188255 0.00400109)
(0.103326 -0.0216153 0.00403083)
(0.107133 -0.022238 0.00383959)
(0.111785 -0.0228228 0.00353503)
(0.117967 -0.0214765 0.00349386)
(0.124866 -0.0195458 0.00328345)
(0.128639 -0.0130729 0.00340945)
(0.117776 -0.00626176 0.00312943)
(0.0233653 -0.00389473 0.00284009)
(0.0678447 -0.0140916 0.00423105)
(0.0914048 -0.0219579 0.00490802)
(0.101028 -0.0265857 0.005069)
(0.106169 -0.0284193 0.00480786)
(0.111945 -0.0296473 0.0043921)
(0.119821 -0.0290242 0.00424638)
(0.129378 -0.0270481 0.00406836)
(0.137194 -0.0194376 0.00429788)
(0.130613 -0.00899759 0.00428892)
(0.0142082 -0.00205797 0.00283618)
(0.0562273 -0.0134361 0.00462932)
(0.0833936 -0.0242377 0.00600971)
(0.0968808 -0.0319334 0.00651303)
(0.104133 -0.0360186 0.00617904)
(0.111269 -0.038606 0.00555034)
(0.121137 -0.039417 0.0052323)
(0.134321 -0.038331 0.0050844)
(0.148316 -0.0300066 0.00553699)
(0.151484 -0.0133756 0.00595061)
(0.00803252 -0.000555595 0.00286003)
(0.042871 -0.0111772 0.00529212)
(0.0717991 -0.0244726 0.00740052)
(0.0897347 -0.0364216 0.00841294)
(0.100378 -0.0446139 0.00803709)
(0.109471 -0.0501648 0.00705958)
(0.121539 -0.0536877 0.00642833)
(0.139466 -0.0554093 0.00626176)
(0.162543 -0.0486816 0.00719408)
(0.183004 -0.0253277 0.00834446)
(0.00501606 -0.00247963 0.000253558)
(0.0301148 -0.0110462 0.00433843)
(0.0573478 -0.0245122 0.00754297)
(0.0781551 -0.0390514 0.00931626)
(0.0925206 -0.0519864 0.00929076)
(0.104485 -0.0629286 0.00814243)
(0.117967 -0.0727856 0.00708066)
(0.141971 -0.0802489 0.00677371)
(0.171249 -0.0891316 0.00826498)
(0.249326 -0.0413456 0.0114044)
(0.0959807 -0.0110816 0.0013509)
(0.100911 -0.00150073 0.0012272)
(0.100647 -0.00118016 0.00117433)
(0.100407 -0.000462645 0.00118656)
(0.100366 -0.00011454 0.00119204)
(0.100366 0.00010374 0.00119192)
(0.100408 0.00045354 0.00118611)
(0.10065 0.00117348 0.00117355)
(0.100915 0.00149848 0.00122816)
(0.0959807 0.0112101 0.00135465)
(0.0936951 -0.00566172 0.00195158)
(0.106236 -0.00253228 0.00198889)
(0.103687 -0.00192083 0.00190287)
(0.10253 -0.000783708 0.00194743)
(0.102292 -0.000237922 0.00195771)
(0.102294 0.000203939 0.00195739)
(0.102536 0.000753757 0.0019461)
(0.103703 0.00188569 0.00190056)
(0.106276 0.00246527 0.00198969)
(0.0936659 0.00571303 0.00195322)
(0.0918296 -0.000458843 0.00161559)
(0.109292 -0.00292528 0.00168698)
(0.106023 -0.00162282 0.00158977)
(0.104404 -0.000645324 0.0016284)
(0.104058 -0.000269648 0.00163775)
(0.104062 0.000195276 0.00163754)
(0.104417 0.000574749 0.00162768)
(0.106036 0.00155212 0.00158852)
(0.109279 0.00287273 0.00168841)
(0.0918845 0.000443521 0.00161283)
(0.0899875 0.00237511 0.00112512)
(0.110107 -0.00319885 0.00117043)
(0.107037 -0.00111945 0.0010689)
(0.105458 -0.00049839 0.00109077)
(0.105112 -0.000290522 0.00110134)
(0.10512 0.000173968 0.00110121)
(0.105481 0.000388744 0.0010902)
(0.107059 0.00101579 0.00106785)
(0.110103 0.00312935 0.00117085)
(0.0901107 -0.00243595 0.00112138)
(0.0888691 0.00362914 0.000716773)
(0.110049 -0.00335309 0.000721317)
(0.107529 -0.000685648 0.000613442)
(0.106092 -0.000497868 0.000629967)
(0.105741 -0.000328079 0.000647026)
(0.105754 0.000161263 0.0006471)
(0.106127 0.000343409 0.000629683)
(0.107563 0.000540236 0.000612641)
(0.110062 0.00326307 0.000720271)
(0.0890861 -0.00376375 0.000714264)
(0.0883156 0.00408724 0.000387653)
(0.109957 -0.00336805 0.000347388)
(0.108065 -0.000311781 0.00021262)
(0.106704 -0.000569422 0.000230276)
(0.106303 -0.000352546 0.000250665)
(0.106322 0.000124017 0.000250472)
(0.106758 0.000361427 0.000229774)
(0.108117 0.000112337 0.000208853)
(0.109999 0.00324636 0.000341796)
(0.0886513 -0.00427418 0.000390603)
(0.0879598 0.00415281 0.000131272)
(0.109878 -0.00331537 4.62697e-05)
(0.108641 -5.06735e-07 -0.000133855)
(0.107321 -0.000658061 -0.000110365)
(0.106865 -0.00034984 -9.5095e-05)
(0.106892 4.46292e-05 -9.58492e-05)
(0.107398 0.000384352 -0.000111347)
(0.108719 -0.000265225 -0.000140378)
(0.109958 0.00314766 3.35353e-05)
(0.0884519 -0.00437524 0.000136507)
(0.0876233 0.00402293 -5.48346e-05)
(0.109751 -0.00323803 -0.00017966)
(0.109155 0.000230938 -0.00041036)
(0.107866 -0.000760962 -0.000374625)
(0.107378 -0.0003314 -0.000371069)
(0.107415 -7.04734e-05 -0.000371548)
(0.107976 0.000404884 -0.000375252)
(0.109273 -0.000576939 -0.000415434)
(0.109886 0.00301795 -0.00019559)
(0.088317 -0.00428392 -5.69313e-05)
(0.0872823 0.00381245 -0.000184165)
(0.109591 -0.00314895 -0.000339078)
(0.109591 0.000381983 -0.000618126)
(0.108326 -0.000882909 -0.000563122)
(0.107826 -0.000313747 -0.000575111)
(0.107879 -0.000213143 -0.000575037)
(0.108477 0.000421153 -0.000563772)
(0.109769 -0.000833837 -0.000621683)
(0.109826 0.00286088 -0.000352109)
(0.0882139 -0.00410847 -0.000195295)
(0.0869304 0.00358155 -0.000274273)
(0.109434 -0.00308521 -0.000441055)
(0.109986 0.000460448 -0.000770449)
(0.108733 -0.00102466 -0.000692997)
(0.108238 -0.00030841 -0.000719081)
(0.108305 -0.000379337 -0.000722888)
(0.10893 0.000424934 -0.000693946)
(0.110235 -0.00106256 -0.000778622)
(0.10981 0.00268196 -0.000459651)
(0.0881573 -0.00391292 -0.000285707)
(0.0865981 0.0033101 -0.000331352)
(0.109222 -0.00300774 -0.000488345)
(0.110355 0.000473983 -0.000880851)
(0.109107 -0.00118414 -0.000781538)
(0.108628 -0.000324131 -0.000815429)
(0.108717 -0.000561265 -0.000829844)
(0.10938 0.000406056 -0.0007718)
(0.110696 -0.00127638 -0.000893571)
(0.10983 0.00248366 -0.000529061)
(0.0881607 -0.00372846 -0.000346046)
(0.0861747 0.00302542 -0.000369392)
(0.109025 -0.00294112 -0.000512852)
(0.110681 0.000431594 -0.000960702)
(0.109446 -0.001362 -0.0008322)
(0.108993 -0.000374522 -0.000886823)
(0.109117 -0.000780892 -0.00090129)
(0.109815 0.000351053 -0.000780036)
(0.11116 -0.00145731 -0.000966635)
(0.109908 0.00229643 -0.000556109)
(0.0882135 -0.00356984 -0.000399407)
(0.0856479 0.00273161 -0.000397807)
(0.108824 -0.00292842 -0.000521028)
(0.110949 0.000327719 -0.00101534)
(0.109743 -0.00156909 -0.000863412)
(0.109327 -0.000473942 -0.000935249)
(0.109495 -0.00104559 -0.000952134)
(0.110233 0.000246923 -0.000809508)
(0.111623 -0.00163607 -0.0010321)
(0.109978 0.00208134 -0.000535367)
(0.0883653 -0.00339182 -0.000421258)
(0.0849971 0.00242447 -0.000408169)
(0.108597 -0.0029559 -0.000512831)
(0.111163 0.000157328 -0.0010514)
(0.110003 -0.00181806 -0.000877636)
(0.109638 -0.000632348 -0.000966015)
(0.109856 -0.0013483 -0.00098664)
(0.110637 8.14547e-05 -0.000825813)
(0.112082 -0.00184936 -0.00108644)
(0.110127 0.00183202 -0.000537393)
(0.0885725 -0.00322252 -0.000408317)
(0.0841616 0.0021094 -0.000409424)
(0.108348 -0.00303373 -0.000496735)
(0.111328 -9.10153e-05 -0.00106836)
(0.11023 -0.00212472 -0.000880611)
(0.10993 -0.000866327 -0.00098387)
(0.110216 -0.00170308 -0.00100938)
(0.111057 -0.000150828 -0.000834322)
(0.112562 -0.002094 -0.00112374)
(0.110358 0.00156545 -0.000534151)
(0.0888715 -0.00308956 -0.000389328)
(0.0830944 0.00177345 -0.000402214)
(0.108058 -0.00319112 -0.000469188)
(0.111442 -0.000435765 -0.00106674)
(0.110427 -0.00250683 -0.00087341)
(0.110209 -0.00119765 -0.00098979)
(0.110584 -0.00212937 -0.00102178)
(0.111504 -0.000467351 -0.000835135)
(0.113089 -0.00238705 -0.00114883)
(0.110694 0.00126411 -0.000527774)
(0.0892952 -0.0029934 -0.000364623)
(0.08175 0.00139356 -0.000380011)
(0.10769 -0.00343821 -0.000426932)
(0.111495 -0.000899174 -0.00104641)
(0.110593 -0.00298638 -0.000856173)
(0.110476 -0.0016529 -0.000982798)
(0.110967 -0.00265089 -0.00102334)
(0.111994 -0.000891437 -0.00082823)
(0.113682 -0.00274675 -0.00116001)
(0.111158 0.00090755 -0.000518806)
(0.0898821 -0.0029322 -0.000333518)
(0.0800455 0.000958743 -0.000338251)
(0.107219 -0.00379335 -0.00036813)
(0.111479 -0.00151018 -0.00100464)
(0.110726 -0.00359333 -0.000826494)
(0.110737 -0.00226567 -0.000960611)
(0.111376 -0.00329775 -0.0010126)
(0.112543 -0.00145386 -0.000812244)
(0.11436 -0.00319638 -0.00115601)
(0.111783 0.000476055 -0.000505432)
(0.0906797 -0.00290857 -0.000293885)
(0.077899 0.000456807 -0.000271186)
(0.106594 -0.00428346 -0.000285592)
(0.111382 -0.00230726 -0.00093492)
(0.110826 -0.00436624 -0.000779654)
(0.110994 -0.00307746 -0.000918713)
(0.111823 -0.00410901 -0.000986063)
(0.113172 -0.00219319 -0.000784478)
(0.11516 -0.00377283 -0.00114049)
(0.112614 -4.92056e-05 -0.000485947)
(0.09175 -0.00292688 -0.000242242)
(0.0752058 -0.000120654 -0.000167016)
(0.105751 -0.00493501 -0.000169332)
(0.111193 -0.00333733 -0.000827812)
(0.110893 -0.0053527 -0.000708076)
(0.111253 -0.00413873 -0.000851232)
(0.11232 -0.0051351 -0.00093866)
(0.113907 -0.00315933 -0.000740574)
(0.116127 -0.00451932 -0.00110828)
(0.113707 -0.000700092 -0.000454871)
(0.0931763 -0.00299966 -0.000174223)
(0.0718634 -0.000776315 -4.73344e-06)
(0.104599 -0.00577129 -3.91036e-06)
(0.110896 -0.00465448 -0.000670078)
(0.110926 -0.00661036 -0.000600673)
(0.111517 -0.00551076 -0.000749347)
(0.112885 -0.00644053 -0.000862421)
(0.114781 -0.00441796 -0.000673548)
(0.117309 -0.00549129 -0.00104912)
(0.115153 -0.00152272 -0.000406142)
(0.0950695 -0.0031386 -8.2653e-05)
(0.0677584 -0.00149703 0.000243011)
(0.103017 -0.00681884 0.00023379)
(0.110469 -0.00631564 -0.000444341)
(0.110924 -0.00820737 -0.000441331)
(0.11179 -0.00726705 -0.000600093)
(0.113529 -0.0081093 -0.000745252)
(0.115832 -0.00605925 -0.000573261)
(0.118775 -0.00677005 -0.000953419)
(0.117057 -0.00258186 -0.000330014)
(0.0975864 -0.00336947 4.42452e-05)
(0.0628342 -0.00225792 0.000604451)
(0.100833 -0.00807344 0.000572838)
(0.109866 -0.00836784 -0.000126006)
(0.110882 -0.0102208 -0.000207799)
(0.112067 -0.00949463 -0.000384737)
(0.114261 -0.010251 -0.000570075)
(0.1171 -0.00820639 -0.000425647)
(0.120611 -0.00847977 -0.000809212)
(0.119573 -0.00397395 -0.000215141)
(0.100943 -0.0037276 0.000222811)
(0.0570523 -0.00299437 0.00110152)
(0.0978637 -0.00950246 0.00104575)
(0.109001 -0.010832 0.000315065)
(0.110778 -0.0127312 0.000129918)
(0.112333 -0.0122945 -7.83355e-05)
(0.115073 -0.0130076 -0.000314485)
(0.118617 -0.0110313 -0.000212045)
(0.122926 -0.0108066 -0.000598297)