/*--------------------------------*- C++ -*----------------------------------*\
| =========                 |                                                 |
| \\      /  F ield         | OpenFOAM: The Open Source CFD Toolbox           |
|  \\    /   O peration     | Version:  4.1                                   |
|   \\  /    A nd           | Web:      www.OpenFOAM.org                      |
|    \\/     M anipulation  |                                                 |
\*---------------------------------------------------------------------------*/
FoamFile
{
    version     2.0;
    format      ascii;
    class       volScalarField;
    location    "85";
    object      T;
}
// * * * * * * * * * * * * * * * * * * * * * * * * * * * * * * * * * * * * * //

dimensions      [0 0 0 1 0 0 0];

internalField   nonuniform List<scalar> 
12000
(
0.999583
1.00358
0.999807
1.00054
1.00055
1.00055
1.00053
0.999806
1.00359
0.999558
0.994979
0.996274
0.99554
0.996991
0.997021
0.997014
0.996979
0.995539
0.996307
0.994933
0.999372
0.994202
0.997396
0.998257
0.998159
0.998157
0.99825
0.997414
0.994232
0.999302
1.00385
0.995572
1.00083
1.00049
1.00029
1.00027
1.00049
1.00085
0.99556
1.00374
1.00496
0.996286
1.00237
1.00118
1.00117
1.00107
1.00118
1.00239
0.996229
1.00482
1.00441
0.996219
1.0025
1.00085
1.00118
1.00107
1.00085
1.00249
0.996173
1.00423
1.00371
0.996266
1.00232
1.00037
1.00095
1.00093
1.00035
1.00228
0.996255
1.00349
1.00314
0.996556
1.00214
0.999989
1.00075
1.00079
0.999954
1.00209
0.996577
1.00289
1.00259
0.996884
1.00192
0.999662
1.00054
1.00062
0.999612
1.00184
0.996919
1.00231
1.00208
0.997164
1.00163
0.999363
1.00033
1.00042
0.999312
1.00155
0.997198
1.00175
1.00166
0.997373
1.00134
0.999144
1.00014
1.00023
0.999067
1.00125
0.997411
1.00127
1.00135
0.997551
1.0011
0.999011
0.999983
1.00009
0.998896
1.00101
0.997585
1.0009
1.00117
0.997754
1.0009
0.998942
0.999873
0.999988
0.998808
1.00081
0.997746
1.00064
1.00109
0.997946
1.00075
0.998924
0.999801
0.999921
0.998776
1.00065
0.997891
1.00043
1.00109
0.998131
1.00065
0.998945
0.999761
0.999884
0.998784
1.00053
0.998022
1.00025
1.00117
0.99832
1.00058
0.998998
0.999745
0.999871
0.998822
1.00043
0.99814
1.00011
1.00134
0.998518
1.00052
0.999075
0.99975
0.99988
0.998879
1.00035
0.99824
0.999982
1.00159
0.998742
1.00048
0.999168
0.999772
0.999906
0.998954
1.0003
0.99832
0.999875
1.00191
0.999023
1.00043
0.999273
0.999813
0.999955
0.999048
1.00026
0.998379
0.999775
1.00225
0.999407
1.00036
0.999386
0.999875
1.00004
0.999164
1.00026
0.998416
0.99967
1.00252
0.999894
1.00024
0.999485
0.999953
1.00016
0.999303
1.00029
0.998424
0.999537
1.00252
1.00043
1.00003
0.999529
1.00003
1.0003
0.999474
1.00034
0.998384
0.999327
1.00191
1.00085
0.999661
0.999417
1.00005
1.00045
0.999672
1.0004
0.998261
0.998954
1.00007
1.0007
0.998956
0.998951
0.999835
1.00048
0.999851
1.00045
0.997995
0.998256
0.995928
0.998831
0.997362
0.997667
0.998996
1.00015
0.9999
1.00048
0.997508
0.996848
0.987178
0.993002
0.993612
0.994626
0.996706
0.998836
0.99945
1.00037
0.996782
0.994213
0.968093
0.97895
0.984911
0.987892
0.991472
0.995435
0.997892
1.00009
0.996392
0.988748
0.943436
0.960342
0.970265
0.975269
0.980921
0.987502
0.993042
0.998153
0.998332
0.981866
0.911114
0.931434
0.944791
0.952812
0.962119
0.972624
0.983635
0.993525
1.01011
0.973817
0.856219
0.873453
0.894573
0.911175
0.925778
0.938892
0.955518
0.966695
1.03409
1.02623
1.00359
1.00675
1.00301
1.00391
1.00387
1.00387
1.00391
1.00301
1.00679
1.00354
0.996298
0.996863
0.996392
0.998265
0.998221
0.998219
0.99825
0.996387
0.996959
0.99624
0.994235
0.98974
0.992956
0.993843
0.993639
0.993629
0.993825
0.99297
0.989826
0.994131
0.995617
0.987826
0.993448
0.992816
0.99245
0.99245
0.992795
0.993474
0.987909
0.995468
0.996341
0.987434
0.994339
0.992675
0.992441
0.992501
0.992655
0.994364
0.987536
0.996152
0.996289
0.987519
0.994654
0.992459
0.992628
0.99271
0.992432
0.994668
0.987594
0.9961
0.996358
0.988188
0.994892
0.992426
0.993038
0.993084
0.992389
0.994891
0.988212
0.996185
0.996679
0.989334
0.995353
0.992736
0.993675
0.993693
0.992687
0.995322
0.989299
0.996501
0.997048
0.990589
0.995896
0.993258
0.994389
0.994402
0.993189
0.995847
0.990509
0.996832
0.997382
0.991706
0.996379
0.99382
0.995045
0.995067
0.993727
0.996308
0.991606
0.997084
0.997659
0.992694
0.996788
0.994352
0.995607
0.995644
0.994246
0.996688
0.992571
0.997263
0.99792
0.993586
0.997137
0.99486
0.996091
0.996143
0.994747
0.997011
0.993425
0.997413
0.998232
0.99434
0.997447
0.99535
0.996512
0.996581
0.995217
0.997297
0.994152
0.997556
0.998558
0.994991
0.997733
0.995819
0.996883
0.99697
0.995658
0.997555
0.994768
0.997682
0.9989
0.99557
0.99798
0.996257
0.997209
0.997315
0.996067
0.997782
0.99528
0.997811
0.999267
0.996089
0.998201
0.996663
0.997499
0.997622
0.996445
0.997983
0.995692
0.997947
0.99965
0.996577
0.998401
0.997037
0.997758
0.997898
0.996793
0.998169
0.996032
0.99805
1.00003
0.99705
0.998579
0.997375
0.997989
0.998147
0.99711
0.998342
0.996308
0.998102
1.0004
0.997514
0.998719
0.997673
0.998192
0.998371
0.997394
0.998498
0.996516
0.998094
1.00074
0.997963
0.998792
0.997916
0.998365
0.998568
0.997643
0.998622
0.996648
0.998013
1.00094
0.998403
0.998774
0.998081
0.998497
0.99873
0.997852
0.998699
0.99668
0.997826
1.00082
0.998804
0.99864
0.99813
0.998559
0.998841
0.998008
0.998715
0.996574
0.997476
1.00016
0.999038
0.99831
0.997989
0.998496
0.998863
0.998088
0.998642
0.996272
0.996854
0.998558
0.998809
0.997631
0.997491
0.998166
0.998702
0.99804
0.998439
0.995683
0.995774
0.995115
0.997384
0.996191
0.996275
0.997271
0.998161
0.997769
0.998066
0.99469
0.993824
0.987946
0.993098
0.993006
0.99357
0.995157
0.996762
0.99699
0.997447
0.99324
0.990472
0.973565
0.982699
0.985907
0.987885
0.990682
0.993672
0.995238
0.996582
0.991746
0.984038
0.95048
0.964449
0.972459
0.976929
0.981714
0.986872
0.990824
0.994478
0.992265
0.975809
0.914709
0.933983
0.948145
0.957254
0.965602
0.973946
0.982195
0.989623
1.00101
0.964669
0.864525
0.88415
0.903747
0.920359
0.934468
0.946231
0.959823
0.968307
1.02474
1.00617
0.999819
1.00301
0.998896
0.999618
0.999577
0.999576
0.999614
0.998897
1.00306
0.999753
0.99557
0.996402
0.996001
0.997902
0.997907
0.9979
0.997879
0.995984
0.996495
0.9955
0.997443
0.992971
0.996511
0.997542
0.997367
0.997353
0.997516
0.99653
0.993067
0.997308
1.00089
0.993464
0.999435
0.998787
0.998441
0.998433
0.998761
0.999463
0.993525
1.00074
1.00244
0.994355
1.00165
0.999837
0.999728
0.999735
0.999809
1.00167
0.99438
1.00229
1.00257
0.994671
1.00229
0.999948
1.00038
1.00037
0.999918
1.0023
0.99466
1.00242
1.0024
0.994906
1.00219
0.999594
1.00053
1.00051
0.999563
1.00219
0.994867
1.00223
1.00224
0.995356
1.00201
0.999272
1.00055
1.00052
0.999244
1.00201
0.995289
1.00204
1.00203
0.995891
1.00186
0.999089
1.00056
1.00054
0.999053
1.00184
0.995789
1.00183
1.00177
0.996365
1.00168
0.998968
1.00052
1.00052
0.998915
1.00164
0.996243
1.00153
1.00152
0.996758
1.00145
0.998866
1.00043
1.00046
0.9988
1.00139
0.996626
1.0012
1.00133
0.99709
1.00121
0.998798
1.00032
1.00036
0.998716
1.00114
0.996951
1.00092
1.00122
0.997368
1.001
0.998771
1.0002
1.00026
0.99867
1.00091
0.997232
1.00068
1.00116
0.997618
1.00082
0.99878
1.00009
1.00017
0.998658
1.0007
0.99747
1.00049
1.00117
0.99784
1.00065
0.998813
0.999988
1.0001
0.998669
1.00052
0.997663
1.00032
1.00125
0.998037
1.0005
0.998861
0.999902
1.00003
0.998698
1.00037
0.997818
1.00017
1.00138
0.998228
1.00037
0.99892
0.999832
0.999981
0.99874
1.00025
0.997941
1.00002
1.00156
0.998432
1.00025
0.998985
0.999776
0.999944
0.998789
1.00015
0.998039
0.999868
1.00176
0.998654
1.00014
0.999045
0.999733
0.99992
0.998842
1.00008
0.998103
0.999694
1.00193
0.998895
1.00001
0.999085
0.999693
0.999905
0.998893
1.00001
0.998115
0.99949
1.00201
0.999151
0.999817
0.99908
0.999644
0.999889
0.998935
0.999933
0.998052
0.999219
1.00182
0.999389
0.999535
0.99899
0.99956
0.999858
0.998957
0.999837
0.997882
0.998821
1.00114
0.999477
0.99908
0.998737
0.999385
0.999781
0.99894
0.999693
0.997551
0.998188
0.999461
0.999107
0.998293
0.99817
0.998999
0.999579
0.998846
0.999469
0.996974
0.997142
0.996014
0.997618
0.996793
0.996979
0.998153
0.999093
0.998608
0.999146
0.996043
0.995282
0.989437
0.993714
0.993751
0.994544
0.99634
0.997958
0.998025
0.998704
0.994727
0.992095
0.977588
0.98536
0.987696
0.989785
0.992719
0.995576
0.996805
0.998285
0.993527
0.985963
0.958609
0.970311
0.976487
0.980933
0.985723
0.990491
0.993754
0.997299
0.994718
0.978123
0.930104
0.945574
0.957114
0.965818
0.973719
0.981191
0.988172
0.995026
1.00533
0.967873
0.888607
0.906485
0.92421
0.938933
0.950978
0.960618
0.971873
0.978564
1.03333
1.00985
1.00055
1.00392
0.999619
1.00039
1.00036
1.00036
1.00039
0.999617
1.00397
1.00048
0.997023
0.998278
0.997906
1.00002
1.00004
1.00003
0.999995
0.997886
0.998374
0.996951
0.998313
0.993861
0.997549
0.998832
0.998652
0.998637
0.998803
0.997569
0.993956
0.998164
1.00058
0.992831
0.99879
0.998236
0.997847
0.997835
0.998211
0.998818
0.99288
1.00041
1.00126
0.992704
0.999842
0.997964
0.997795
0.997792
0.99794
0.999865
0.992719
1.00109
1.00093
0.992491
0.999946
0.997422
0.997786
0.997792
0.997396
0.99996
0.99251
1.00072
1.00047
0.992435
0.999585
0.996721
0.997589
0.997602
0.996691
0.99958
0.992455
1.00023
1.0001
0.992728
0.999262
0.996193
0.997394
0.997415
0.996157
0.999234
0.992718
0.999864
0.99978
0.993226
0.999074
0.995934
0.997323
0.997358
0.995888
0.999031
0.993192
0.999526
0.999513
0.993763
0.998947
0.995863
0.997339
0.997392
0.995799
0.998886
0.99372
0.999197
0.999327
0.994278
0.998843
0.995901
0.997388
0.997459
0.995812
0.998765
0.994232
0.998924
0.999234
0.994774
0.998773
0.996022
0.997458
0.997547
0.995908
0.998683
0.994723
0.998719
0.999236
0.99525
0.998743
0.99621
0.997553
0.997663
0.996072
0.998645
0.99518
0.998586
0.999316
0.995703
0.998748
0.996447
0.997673
0.997805
0.996284
0.99864
0.99559
0.998522
0.999465
0.996129
0.998775
0.996712
0.997809
0.99796
0.996524
0.998656
0.995951
0.998506
0.999668
0.996532
0.99882
0.996991
0.997951
0.998122
0.996775
0.998693
0.996272
0.998503
0.999919
0.996921
0.998876
0.997271
0.998098
0.998286
0.997027
0.998746
0.996556
0.998496
1.00021
0.997299
0.998928
0.997542
0.998244
0.998449
0.997273
0.998807
0.996794
0.998474
1.00051
0.997673
0.998966
0.997793
0.998385
0.998605
0.997506
0.998869
0.996977
0.998424
1.0008
0.998054
0.998969
0.998005
0.998512
0.998751
0.997719
0.998925
0.997092
0.998325
1.00101
0.998441
0.998912
0.998157
0.998615
0.998881
0.997907
0.998964
0.997118
0.998142
1.00098
0.998803
0.998766
0.998215
0.998676
0.998985
0.998062
0.998969
0.997025
0.997822
1.00051
0.99904
0.998467
0.998117
0.998656
0.999045
0.998176
0.998924
0.996766
0.997266
0.999185
0.99889
0.997889
0.997743
0.998465
0.99901
0.998235
0.998818
0.99627
0.996312
0.99631
0.997781
0.99672
0.996862
0.997929
0.998783
0.99822
0.99868
0.995472
0.994598
0.990738
0.994647
0.994302
0.99501
0.996679
0.998121
0.998025
0.998567
0.994409
0.991664
0.980717
0.987813
0.989462
0.991387
0.994117
0.99662
0.99751
0.99876
0.993722
0.986047
0.964197
0.974992
0.980228
0.984453
0.988884
0.993003
0.995619
0.998773
0.995791
0.978934
0.938549
0.953103
0.963733
0.972042
0.979242
0.985625
0.991549
0.997823
1.0078
0.97017
0.90018
0.917607
0.934761
0.948274
0.958502
0.966179
0.975902
0.981679
1.03677
1.01261
1.00057
1.00387
0.999579
1.00036
1.00032
1.00032
1.00035
0.999575
1.00393
1.0005
0.997055
0.998238
0.997916
1.00005
1.00006
1.00005
1.00002
0.997895
0.998342
0.996983
0.998222
0.993664
0.997382
0.998663
0.998457
0.998441
0.998629
0.997401
0.993764
0.998076
1.00035
0.992506
0.99847
0.997865
0.997436
0.997422
0.997836
0.998493
0.992547
1.00019
1.00116
0.992564
0.999768
0.997822
0.997618
0.997612
0.997794
0.999784
0.992567
1.001
1.00116
0.992774
1.0004
0.997822
0.998182
0.998182
0.997792
1.0004
0.99277
1.00096
1.00099
0.993158
1.00054
0.997635
0.998539
0.998544
0.997599
1.00051
0.993131
1.00079
1.00084
0.993764
1.00054
0.997455
0.998724
0.998738
0.997409
1.0005
0.993697
1.00065
1.0007
0.99444
1.00054
0.997399
0.998881
0.99891
0.997341
1.00049
0.994359
1.00047
1.00055
0.995066
1.0005
0.997432
0.999018
0.999066
0.997354
1.00044
0.994984
1.00026
1.00043
0.995602
1.00041
0.997495
0.999103
0.999172
0.997394
1.00035
0.995532
1.00004
1.00035
0.996067
1.00029
0.997578
0.999141
0.999233
0.997454
1.00024
0.995997
0.999853
1.00033
0.996479
1.00019
0.99769
0.999162
0.999274
0.997542
1.00013
0.996384
0.999723
1.00035
0.996848
1.0001
0.997828
0.999179
0.999316
0.997658
1.00003
0.996715
0.999623
1.00043
0.997178
1.00002
0.997982
0.9992
0.99936
0.99779
0.999948
0.996997
0.999539
1.00057
0.997476
0.999946
0.998142
0.999221
0.999402
0.997928
0.999876
0.997236
0.99946
1.00075
0.997754
0.999882
0.998301
0.999244
0.999444
0.998067
0.999817
0.997437
0.999378
1.00096
0.998022
0.999819
0.998454
0.999266
0.999485
0.998201
0.99977
0.997593
0.999283
1.0012
0.998294
0.999747
0.99859
0.999286
0.999524
0.998328
0.99973
0.9977
0.999162
1.00142
0.998582
0.999652
0.998698
0.999299
0.999558
0.998441
0.999691
0.997746
0.998998
1.00157
0.998891
0.999514
0.998761
0.9993
0.999585
0.998537
0.999642
0.997713
0.998758
1.00152
0.999203
0.999305
0.99875
0.999272
0.9996
0.99861
0.99957
0.99757
0.99839
1.0011
0.999427
0.998963
0.998608
0.999185
0.999587
0.998658
0.999463
0.99727
0.997799
0.9999
0.999326
0.998374
0.998225
0.998962
0.999509
0.998673
0.999315
0.996753
0.996827
0.997284
0.998376
0.997254
0.997392
0.998452
0.999287
0.998652
0.999166
0.99596
0.995122
0.992159
0.995588
0.995003
0.995685
0.997325
0.998709
0.998507
0.999088
0.994941
0.992231
0.982802
0.98936
0.990524
0.992346
0.995008
0.997387
0.99811
0.99936
0.994336
0.986667
0.966881
0.977248
0.981849
0.985856
0.990137
0.994041
0.996404
0.999484
0.996501
0.979566
0.941492
0.955917
0.965994
0.973953
0.980874
0.986943
0.992538
0.998623
1.00859
0.970539
0.903652
0.921059
0.937925
0.950864
0.960534
0.967738
0.977095
0.982496
1.03769
1.0128
1.00057
1.00387
0.999579
1.00036
1.00032
1.00032
1.00035
0.999576
1.00393
1.0005
0.997054
0.998237
0.997915
1.00005
1.00006
1.00004
1.00002
0.997895
0.998339
0.99698
0.998223
0.993661
0.997379
0.998659
0.998451
0.998437
0.998627
0.9974
0.99376
0.998073
1.00035
0.992499
0.998467
0.997861
0.99743
0.997417
0.997832
0.998491
0.992543
1.00019
1.00117
0.992555
0.999769
0.99782
0.997616
0.997606
0.997791
0.999784
0.992566
1.001
1.00117
0.992766
1.0004
0.997821
0.99818
0.998176
0.99779
1.0004
0.992768
1.00096
1.00103
0.993138
1.00053
0.997631
0.998535
0.99854
0.997598
1.00051
0.993126
1.00079
1.00089
0.99373
1.00054
0.997446
0.998718
0.998733
0.997405
1.0005
0.993691
1.00066
1.00074
0.994414
1.00054
0.997388
0.998874
0.998905
0.997335
1.00049
0.994359
1.00047
1.00055
0.995055
1.00051
0.997419
0.999013
0.999062
0.997349
1.00044
0.994995
1.00023
1.00041
0.995601
1.00042
0.997482
0.999097
0.999168
0.99739
1.00035
0.995543
1.00002
1.00033
0.996066
1.00031
0.997565
0.999133
0.999228
0.997449
1.00023
0.996003
0.999841
1.0003
0.996477
1.0002
0.997676
0.999151
0.999268
0.997535
1.00012
0.996386
0.999724
1.00032
0.996844
1.0001
0.997813
0.999166
0.999307
0.997647
1.00001
0.99671
0.99964
1.00041
0.997167
1.00002
0.997964
0.999184
0.999347
0.997773
0.999918
0.996988
0.99956
1.00053
0.99746
0.999939
0.998121
0.999202
0.999385
0.997905
0.999844
0.997227
0.999469
1.0007
0.997732
0.999867
0.998275
0.99922
0.999422
0.99804
0.999784
0.997427
0.999372
1.00091
0.997993
0.999795
0.998422
0.999235
0.999456
0.998171
0.999733
0.997581
0.999267
1.00113
0.998257
0.999713
0.998551
0.999246
0.999486
0.998291
0.999686
0.997683
0.999142
1.00134
0.998533
0.999606
0.99865
0.999251
0.999511
0.998398
0.999639
0.99772
0.998974
1.00148
0.998828
0.999451
0.998701
0.99924
0.999528
0.998487
0.999579
0.997674
0.998729
1.00142
0.999121
0.999223
0.998674
0.999198
0.999526
0.998548
0.999492
0.997514
0.998353
1.00097
0.999322
0.998859
0.99851
0.999088
0.99949
0.998577
0.999363
0.997193
0.997748
0.999709
0.999183
0.99824
0.998096
0.998832
0.999378
0.998562
0.999187
0.996643
0.996754
0.996999
0.998166
0.997074
0.997214
0.998272
0.999108
0.998495
0.998997
0.995805
0.995012
0.99175
0.995271
0.994749
0.995438
0.997075
0.998458
0.998281
0.998855
0.994727
0.992068
0.982282
0.988911
0.990161
0.991999
0.994653
0.997031
0.997781
0.999025
0.994031
0.986416
0.966317
0.976674
0.981361
0.98539
0.98966
0.993559
0.995953
0.999037
0.996105
0.979263
0.941037
0.955282
0.965341
0.973299
0.980198
0.986246
0.991862
0.997957
1.00797
0.970047
0.903095
0.920323
0.937146
0.950112
0.959787
0.96699
0.976384
0.981847
1.03713
1.01256
1.00055
1.00391
0.999618
1.00039
1.00036
1.00035
1.00039
0.999613
1.00397
1.00048
0.997022
0.998268
0.997893
1.00001
1.00003
1.00002
0.999978
0.997871
0.998366
0.996939
0.998309
0.993857
0.997541
0.998822
0.998636
0.998623
0.99879
0.997558
0.993946
0.998167
1.0006
0.99282
0.998788
0.998232
0.997838
0.997826
0.998209
0.998818
0.99287
1.00042
1.00133
0.992657
0.999843
0.997963
0.997794
0.997786
0.997944
0.999869
0.992706
1.00111
1.001
0.992435
0.999961
0.997422
0.997792
0.997787
0.997401
0.999959
0.992461
1.00079
1.00049
0.992402
0.999611
0.996719
0.997598
0.9976
0.996692
0.999579
0.992383
1.0003
1.00008
0.992716
0.999295
0.996191
0.997405
0.997418
0.996152
0.999241
0.992658
0.999893
0.999747
0.993228
0.999106
0.995931
0.997336
0.997363
0.995878
0.99904
0.993146
0.999524
0.999471
0.993771
0.998973
0.995856
0.997351
0.997396
0.995784
0.998898
0.993677
0.999188
0.999284
0.99429
0.99886
0.995891
0.997396
0.99746
0.995797
0.998785
0.99419
0.998906
0.999197
0.99479
0.998782
0.996009
0.997462
0.997548
0.99589
0.998706
0.994679
0.998696
0.999198
0.995268
0.998747
0.996197
0.997553
0.997662
0.996051
0.998674
0.995137
0.998556
0.999274
0.995718
0.998747
0.996434
0.997668
0.9978
0.99626
0.998676
0.995555
0.998477
0.999419
0.996139
0.998765
0.996696
0.997798
0.997951
0.996495
0.998693
0.995923
0.998447
0.999616
0.996534
0.998797
0.996967
0.997935
0.998108
0.99674
0.998723
0.996248
0.998437
0.999855
0.996911
0.998838
0.997239
0.998075
0.998268
0.996987
0.998768
0.996532
0.998423
1.00013
0.997275
0.998878
0.997501
0.998212
0.998425
0.997229
0.998819
0.99677
0.998396
1.00041
0.997633
0.998903
0.99774
0.998341
0.998575
0.997459
0.99887
0.996952
0.998348
1.00066
0.997989
0.998889
0.997939
0.998456
0.998712
0.997669
0.998915
0.997063
0.998252
1.00082
0.998341
0.998813
0.998074
0.998544
0.998831
0.997853
0.998941
0.997088
0.998068
1.00073
0.998657
0.99864
0.998111
0.998584
0.998916
0.997998
0.998929
0.996985
0.997744
1.00017
0.998821
0.998298
0.997978
0.998529
0.998942
0.998089
0.99886
0.996708
0.997177
0.998684
0.998548
0.997642
0.997542
0.998277
0.998849
0.998102
0.998713
0.996176
0.996202
0.995551
0.99722
0.996331
0.996547
0.997633
0.998521
0.997999
0.998499
0.99531
0.994434
0.989592
0.993738
0.993667
0.9945
0.996205
0.99769
0.997649
0.998254
0.994142
0.991405
0.979167
0.986456
0.988445
0.990554
0.993351
0.995913
0.996874
0.998201
0.993256
0.985587
0.962359
0.973182
0.978742
0.98319
0.987728
0.991936
0.994652
0.997901
0.995112
0.978354
0.936525
0.950772
0.961529
0.970047
0.977403
0.983904
0.989935
0.996272
1.00651
0.968968
0.897468
0.914632
0.931856
0.945667
0.956207
0.964152
0.974083
0.980012
1.03556
1.01227
0.999819
1.00301
0.998896
0.999618
0.999577
0.999575
0.999611
0.998892
1.00306
0.999752
0.995571
0.996399
0.995985
0.997885
0.997892
0.997885
0.997858
0.995966
0.996493
0.995494
0.997459
0.992984
0.996529
0.99756
0.997384
0.997373
0.997534
0.996551
0.993088
0.997328
1.00092
0.993464
0.999457
0.998806
0.998463
0.998453
0.998784
0.999488
0.993524
1.00077
1.00246
0.994336
1.00167
0.999848
0.999745
0.999735
0.999828
1.00168
0.994349
1.00233
1.00258
0.994638
1.00229
0.99994
1.00036
1.00036
0.999923
1.00231
0.994619
1.00244
1.00239
0.994868
1.00218
0.999569
1.00048
1.00048
0.999543
1.00219
0.99484
1.00221
1.00221
0.995321
1.00199
0.999243
1.00047
1.00049
0.9992
1.00199
0.995266
1.00201
1.00199
0.995857
1.00183
0.999052
1.00047
1.0005
0.998992
1.00181
0.995763
1.00179
1.00174
0.996327
1.00163
0.998928
1.00043
1.00047
0.998846
1.00159
0.996205
1.0015
1.00149
0.996721
1.0014
0.998831
1.00034
1.0004
0.998726
1.00135
0.996573
1.00119
1.00128
0.997054
1.00116
0.998768
1.00023
1.0003
0.998636
1.0011
0.996892
1.0009
1.00117
0.997329
1.00095
0.998747
1.00011
1.00021
0.99859
1.00088
0.997175
1.00066
1.00111
0.997573
1.00077
0.998756
1
1.00012
0.998578
1.00067
0.997417
1.00046
1.00112
0.997786
1.00059
0.998783
0.999905
1.00004
0.998591
1.00049
0.997615
1.00027
1.00118
0.997985
1.00044
0.998821
0.99982
0.999968
0.998618
1.00034
0.997773
1.00012
1.00129
0.99818
1.0003
0.99887
0.999749
0.999913
0.998658
1.0002
0.997902
0.999967
1.00145
0.998367
1.00017
0.99892
0.999688
0.999871
0.998707
1.00009
0.997999
0.999813
1.00161
0.998563
1.00004
0.998963
0.999634
0.999839
0.998758
1
0.998058
0.999642
1.00174
0.998768
0.999884
0.998982
0.999581
0.999814
0.998806
0.999926
0.998064
0.999433
1.00174
0.998982
0.999668
0.998954
0.999512
0.999785
0.99884
0.999843
0.997996
0.99915
1.00147
0.999164
0.999343
0.99883
0.999396
0.999729
0.998844
0.999729
0.997813
0.998734
1.00063
0.999164
0.998825
0.998521
0.999169
0.999602
0.998791
0.99955
0.997454
0.998071
0.998728
0.998633
0.997921
0.997848
0.998685
0.999307
0.998624
0.999261
0.996817
0.996973
0.994899
0.99683
0.996193
0.996455
0.997651
0.998644
0.99824
0.998815
0.995775
0.99501
0.987657
0.992377
0.992747
0.993662
0.995504
0.997198
0.997386
0.998145
0.994266
0.991649
0.974983
0.983234
0.986055
0.988317
0.991333
0.994297
0.995692
0.997303
0.992718
0.985157
0.955315
0.96734
0.974086
0.978719
0.98359
0.988479
0.991952
0.99568
0.993421
0.976954
0.925394
0.94102
0.953243
0.962338
0.970418
0.978017
0.985186
0.99218
1.00298
0.965522
0.881763
0.899672
0.91814
0.933574
0.946221
0.956374
0.968053
0.974963
1.03052
1.00861
1.0036
1.00678
1.00306
1.00396
1.00392
1.00392
1.00396
1.00306
1.00684
1.00355
0.996318
0.996946
0.996476
0.99835
0.99831
0.998303
0.998332
0.996472
0.99707
0.996278
0.994239
0.989818
0.993041
0.993916
0.993711
0.993703
0.9939
0.993062
0.989941
0.994165
0.99561
0.987859
0.99348
0.992835
0.992484
0.992477
0.992815
0.993496
0.987912
0.995507
0.996332
0.987419
0.994325
0.992664
0.992495
0.992484
0.99264
0.99433
0.987416
0.996197
0.996276
0.987475
0.994607
0.992421
0.992675
0.992664
0.99241
0.994608
0.987419
0.996113
0.996341
0.988129
0.994827
0.992359
0.99303
0.993033
0.992356
0.994822
0.988039
0.996147
0.996656
0.989271
0.99528
0.992657
0.99362
0.993635
0.992635
0.995263
0.989154
0.996425
0.997018
0.990527
0.995823
0.993166
0.994307
0.994333
0.993122
0.995793
0.990388
0.996743
0.997323
0.991671
0.996312
0.993723
0.994954
0.994988
0.993656
0.99626
0.991501
0.996995
0.997585
0.992681
0.996718
0.994265
0.995518
0.995564
0.994178
0.996645
0.992464
0.997188
0.997865
0.993557
0.997057
0.994783
0.996002
0.996067
0.994671
0.996975
0.993303
0.997351
0.998183
0.994296
0.997356
0.995277
0.996421
0.996506
0.995139
0.997276
0.994036
0.997486
0.998494
0.994941
0.997633
0.995745
0.996786
0.996892
0.995578
0.997532
0.99467
0.997599
0.998816
0.99551
0.997875
0.996178
0.997107
0.997232
0.995983
0.997747
0.99519
0.997723
0.999148
0.996022
0.99809
0.996572
0.997389
0.997533
0.996356
0.997945
0.995604
0.997857
0.99948
0.996498
0.998279
0.996932
0.997636
0.9978
0.996697
0.99812
0.995945
0.997954
0.999821
0.996939
0.998433
0.99725
0.997852
0.998035
0.997003
0.998272
0.996221
0.997997
1.00015
0.997353
0.998531
0.997518
0.998034
0.998238
0.997273
0.998398
0.996425
0.997982
1.00044
0.997743
0.998556
0.997726
0.998178
0.998407
0.997502
0.99849
0.996546
0.997891
1.00057
0.99812
0.998485
0.997854
0.998275
0.998537
0.997686
0.998537
0.996563
0.997691
1.00037
0.998464
0.998292
0.997858
0.998292
0.998604
0.99781
0.998519
0.996437
0.997324
0.999614
0.998641
0.997899
0.997651
0.998167
0.998564
0.997842
0.998403
0.996108
0.996679
0.99781
0.9983
0.997129
0.997046
0.997736
0.998306
0.997716
0.998135
0.995473
0.995568
0.993889
0.996559
0.995488
0.995614
0.996641
0.997595
0.99731
0.997664
0.994409
0.993566
0.985515
0.991412
0.991847
0.992519
0.994175
0.9959
0.996294
0.996874
0.992837
0.990132
0.969737
0.979761
0.983923
0.986143
0.98908
0.992285
0.994111
0.995685
0.991149
0.983507
0.946137
0.960949
0.969832
0.974483
0.979326
0.984662
0.988937
0.992942
0.991297
0.975111
0.907986
0.928131
0.943425
0.953062
0.961684
0.970191
0.978765
0.986691
0.999299
0.963049
0.855189
0.874943
0.894997
0.912225
0.927222
0.939735
0.954067
0.963109
1.02169
1.00576
0.999563
1.00354
0.999752
1.00048
1.00049
1.00049
1.00047
0.999751
1.00356
0.999502
0.994941
0.996229
0.995482
0.996924
0.996953
0.996949
0.996911
0.995479
0.996282
0.994863
0.999324
0.994121
0.997298
0.99815
0.998051
0.998044
0.998137
0.99732
0.994179
0.999164
1.0038
0.995502
1.00075
1.00041
1.00017
1.00017
1.00041
1.00078
0.99554
1.00362
1.00493
0.996245
1.00232
1.00113
1.00101
1.00102
1.00113
1.00236
0.996251
1.00477
1.00438
0.99621
1.00248
1.00084
1.00105
1.00106
1.00081
1.00249
0.996185
1.00424
1.00369
0.996285
1.00233
1.0004
1.00092
1.00092
1.00034
1.00231
0.996246
1.00355
1.00313
0.996594
1.00217
1.00003
1.00079
1.00079
0.999977
1.00211
0.996553
1.00296
1.00259
0.996935
1.00196
0.999713
1.00062
1.00063
0.999662
1.00187
0.996901
1.00238
1.00208
0.997196
1.00168
0.99942
1.00042
1.00045
0.999369
1.00157
0.997187
1.00181
1.00165
0.997394
1.0014
0.999184
1.00022
1.00027
0.999124
1.00127
0.997414
1.00132
1.00134
0.997593
1.00115
0.999036
1.00007
1.00012
0.998962
1.00101
0.997598
1.00095
1.00116
0.997805
1.00095
0.99896
0.999955
1.00002
0.99887
1.00079
0.997746
1.00067
1.00107
0.997991
1.0008
0.998939
0.999882
0.99995
0.998832
1.00063
0.997882
1.00045
1.00107
0.998169
1.00068
0.998961
0.999837
0.999915
0.998834
1.00052
0.998015
1.00027
1.00115
0.998344
1.0006
0.999013
0.999813
0.999902
0.998863
1.00042
0.998134
1.00013
1.0013
0.998523
1.00054
0.999085
0.999808
0.999912
0.998915
1.00036
0.998235
1.00001
1.00154
0.998736
1.00048
0.999174
0.999824
0.999947
0.998991
1.00033
0.99832
0.999911
1.00182
0.999013
1.00041
0.999274
0.999861
1.00001
0.999094
1.00033
0.998392
0.999823
1.00211
0.999386
1.00032
0.999376
0.999919
1.0001
0.999222
1.00035
0.998447
0.99973
1.00229
0.999845
1.00016
0.999449
0.99999
1.00022
0.999374
1.0004
0.998472
0.999607
1.00212
1.00031
0.9999
0.999445
1.00005
1.00036
0.999548
1.00046
0.998449
0.999406
1.0012
1.00057
0.999434
0.999245
0.999991
1.00046
0.999727
1.00051
0.998337
0.999037
0.998803
1.00004
0.998526
0.998607
0.999615
1.00038
0.999843
1.00053
0.998068
0.998332
0.993647
0.997395
0.996497
0.996965
0.998434
0.999799
0.999734
1.00047
0.997557
0.996901
0.98243
0.989821
0.991803
0.993236
0.995535
0.998007
0.998959
1.00016
0.99675
0.994201
0.962064
0.974492
0.98188
0.985361
0.989251
0.99372
0.996744
0.99945
0.996223
0.988649
0.939209
0.957349
0.966823
0.971656
0.977504
0.984552
0.990776
0.996637
0.997778
0.981689
0.903209
0.924044
0.938521
0.946615
0.956271
0.967346
0.979241
0.990219
1.00912
0.973935
0.845478
0.859301
0.880093
0.89878
0.915602
0.930437
0.948199
0.960025
1.03108
1.02868
0.812919
0.823751
0.842709
0.863805
0.883433
0.899591
0.920651
0.928254
1.00523
1.02888
0.789805
0.798413
0.81661
0.837987
0.858344
0.875368
0.897878
0.906882
0.979046
1.04651
0.765122
0.772319
0.789892
0.810407
0.830067
0.846588
0.868946
0.881775
0.944332
1.04883
0.739365
0.74531
0.762509
0.781455
0.799316
0.814342
0.834806
0.850818
0.902697
1.0208
0.71287
0.717512
0.734375
0.751392
0.767004
0.779868
0.797116
0.813844
0.854614
0.970722
0.685896
0.689055
0.705385
0.720004
0.732808
0.742979
0.756568
0.772562
0.802519
0.908031
0.658617
0.660093
0.675407
0.687231
0.696887
0.70389
0.713366
0.727465
0.748733
0.838635
0.631123
0.630759
0.644448
0.653186
0.659527
0.663155
0.668451
0.679398
0.693909
0.766192
0.603467
0.601267
0.612743
0.618211
0.620941
0.620862
0.621664
0.628654
0.637446
0.69336
0.57579
0.571874
0.580603
0.582423
0.58069
0.576175
0.57223
0.574965
0.578752
0.620225
0.548202
0.542606
0.547947
0.545323
0.538435
0.529234
0.520976
0.519449
0.518984
0.547997
0.520589
0.513227
0.514336
0.506611
0.494704
0.481261
0.469325
0.463843
0.45983
0.478644
0.492689
0.483437
0.479746
0.466947
0.450591
0.433542
0.418568
0.409733
0.402869
0.413747
0.464268
0.453132
0.44465
0.427277
0.407101
0.387116
0.369816
0.358394
0.349384
0.354425
0.435259
0.422484
0.409583
0.388243
0.364911
0.342716
0.323805
0.310563
0.300014
0.300928
0.405901
0.391724
0.374876
0.350242
0.324466
0.300776
0.280888
0.266462
0.254815
0.252789
0.376389
0.360991
0.340754
0.313533
0.286033
0.261493
0.241139
0.22597
0.21348
0.209205
0.346767
0.33042
0.307405
0.278311
0.249786
0.224947
0.204491
0.188865
0.175736
0.16973
0.317127
0.300166
0.275014
0.244746
0.215872
0.191188
0.170948
0.155111
0.141577
0.133972
0.287667
0.270426
0.243794
0.213037
0.184425
0.160331
0.140507
0.124491
0.110778
0.101835
0.258664
0.241434
0.213979
0.183389
0.15559
0.13233
0.113017
0.0971145
0.0836909
0.0739556
0.230445
0.213451
0.185815
0.155975
0.129426
0.107163
0.0887102
0.0734552
0.0608915
0.0510165
0.20335
0.186754
0.159531
0.130959
0.10593
0.0850076
0.067868
0.0538243
0.0426076
0.0334332
0.177699
0.161618
0.135316
0.108473
0.0852019
0.0659949
0.0505933
0.0382384
0.028705
0.0208954
0.153758
0.138287
0.113338
0.0885138
0.0672828
0.0501225
0.0367918
0.0263951
0.0186673
0.0125143
0.131732
0.116955
0.093716
0.0710811
0.0521338
0.0372674
0.0261593
0.0177504
0.0117583
0.00723329
0.111757
0.0977406
0.0764881
0.0561605
0.0396542
0.0271796
0.0182343
0.0116635
0.00720774
0.00407229
0.0938893
0.0807059
0.0615652
0.0436545
0.0296486
0.0194906
0.0124948
0.00751578
0.00432464
0.00224818
0.0781098
0.0658939
0.0488562
0.0334017
0.0218192
0.0137707
0.00843732
0.00477318
0.00255629
0.00121952
0.0643491
0.0532846
0.0382442
0.0251839
0.0158435
0.00962553
0.00564777
0.00302143
0.00151007
0.000658369
0.825528
0.841413
0.862004
0.881953
0.900186
0.914888
0.932963
0.938348
1.00612
1.0053
0.804228
0.818058
0.839378
0.860374
0.879559
0.895081
0.91503
0.92111
0.986587
1.01756
0.780431
0.792629
0.814912
0.836721
0.856241
0.87168
0.892072
0.901254
0.960156
1.02424
0.754862
0.765077
0.788149
0.810454
0.830094
0.845173
0.864489
0.876655
0.927139
1.01069
0.728031
0.735706