/*--------------------------------*- C++ -*----------------------------------*\
| =========                 |                                                 |
| \\      /  F ield         | OpenFOAM: The Open Source CFD Toolbox           |
|  \\    /   O peration     | Version:  4.1                                   |
|   \\  /    A nd           | Web:      www.OpenFOAM.org                      |
|    \\/     M anipulation  |                                                 |
\*---------------------------------------------------------------------------*/
FoamFile
{
    version     2.0;
    format      ascii;
    class       volScalarField;
    location    "800";
    object      epsilon;
}
// * * * * * * * * * * * * * * * * * * * * * * * * * * * * * * * * * * * * * //

dimensions      [0 2 -3 0 0 0 0];

internalField   nonuniform List<scalar> 
12000
(
0.319605
0.311337
0.310119
0.309819
0.309746
0.309746
0.309821
0.310114
0.311241
0.319504
0.0652588
0.0640272
0.0630719
0.0626298
0.062496
0.0624966
0.0626323
0.0630825
0.0640357
0.0652866
0.0176828
0.0178872
0.0175014
0.0172681
0.017183
0.0171837
0.0172693
0.0175047
0.0178879
0.017692
0.00616716
0.00643066
0.00627927
0.00616773
0.00612192
0.00612204
0.00616897
0.00627908
0.00643058
0.00617573
0.00264081
0.0028122
0.0027555
0.00270255
0.00267702
0.00267754
0.00270296
0.00275419
0.0028118
0.00264576
0.00132721
0.00143311
0.00141127
0.00138373
0.0013685
0.00136897
0.00138424
0.00141061
0.00143367
0.00133037
0.000753112
0.000821949
0.000811852
0.000794868
0.000785145
0.000785427
0.000795523
0.000811992
0.000822556
0.000756084
0.000468146
0.000513987
0.000512235
0.00050151
0.000495081
0.000495379
0.000502278
0.000512697
0.000515591
0.000471407
0.000312062
0.000344276
0.000346593
0.000339846
0.00033539
0.000335606
0.000340489
0.000347119
0.000345469
0.000315476
0.000219624
0.000243054
0.000247439
0.000243199
0.000240045
0.000240296
0.000243823
0.000248162
0.000243921
0.000223054
0.000161336
0.000179075
0.000184116
0.000181281
0.000178949
0.000179049
0.000181801
0.000184928
0.000180271
0.000164848
0.000122814
0.00013697
0.00014185
0.00013996
0.000138283
0.00013838
0.000140527
0.000142829
0.00013807
0.000126356
9.62592e-05
0.000107939
0.000112544
0.000111221
0.000110018
0.000110172
0.000111833
0.000113636
0.000109134
9.98818e-05
7.72686e-05
8.71688e-05
9.15824e-05
9.0641e-05
8.97897e-05
8.99773e-05
9.12999e-05
9.27736e-05
8.85448e-05
8.10325e-05
6.32552e-05
7.19068e-05
7.61097e-05
7.5445e-05
7.48632e-05
7.50949e-05
7.61566e-05
7.74233e-05
7.34572e-05
6.72393e-05
5.26142e-05
6.03732e-05
6.44045e-05
6.39755e-05
6.35934e-05
6.38681e-05
6.47462e-05
6.5827e-05
6.21272e-05
5.68792e-05
4.43184e-05
5.14476e-05
5.53102e-05
5.50904e-05
5.48512e-05
5.51531e-05
5.59122e-05
5.69178e-05
5.35137e-05
4.89842e-05
3.76798e-05
4.43731e-05
4.81104e-05
4.808e-05
4.79845e-05
4.83376e-05
4.90164e-05
4.99098e-05
4.68048e-05
4.28219e-05
3.22317e-05
3.86576e-05
4.22891e-05
4.24248e-05
4.2445e-05
4.28151e-05
4.34761e-05
4.43679e-05
4.16001e-05
3.80356e-05
2.76297e-05
3.39006e-05
3.74868e-05
3.78156e-05
3.7968e-05
3.84265e-05
3.90525e-05
3.98825e-05
3.74203e-05
3.41825e-05
2.362e-05
2.98154e-05
3.34498e-05
3.39614e-05
3.41926e-05
3.46886e-05
3.5376e-05
3.62988e-05
3.41958e-05
3.12208e-05
2.00006e-05
2.62e-05
2.99585e-05
3.07155e-05
3.1105e-05
3.17384e-05
3.24098e-05
3.33131e-05
3.15304e-05
2.87665e-05
1.66023e-05
2.2817e-05
2.68836e-05
2.78853e-05
2.83537e-05
2.90355e-05
2.9864e-05
3.09564e-05
2.95802e-05
2.70032e-05
1.32703e-05
1.95591e-05
2.40223e-05
2.54186e-05
2.61184e-05
2.69735e-05
2.77864e-05
2.89169e-05
2.79107e-05
2.55049e-05
9.88196e-06
1.61197e-05
2.12053e-05
2.30669e-05
2.38829e-05
2.48433e-05
2.59566e-05
2.74018e-05
2.68431e-05
2.46762e-05
6.26616e-06
1.24901e-05
1.82812e-05
2.08606e-05
2.21057e-05
2.32599e-05
2.43336e-05
2.59574e-05
2.5833e-05
2.39979e-05
2.69637e-06
8.28367e-06
1.49682e-05
1.82613e-05
1.98687e-05
2.13202e-05
2.28799e-05
2.50086e-05
2.53524e-05
2.41296e-05
1.32901e-06
4.53429e-06
1.08564e-05
1.55323e-05
1.79912e-05
1.96658e-05
2.11388e-05
2.37483e-05
2.49513e-05
2.43075e-05
1.92973e-06
3.57025e-06
5.98893e-06
9.68096e-06
1.44113e-05
1.74952e-05
1.94581e-05
2.26964e-05
2.49086e-05
2.53943e-05
3.95088e-06
6.05793e-06
6.58141e-06
7.32284e-06
8.36503e-06
1.16892e-05
1.59928e-05
2.00811e-05
2.43509e-05
2.70738e-05
0.311335
0.704905
0.702104
0.701819
0.701736
0.701737
0.701818
0.702105
0.705173
0.311466
0.064024
0.102342
0.0873482
0.0863574
0.0862204
0.0862193
0.0863603
0.0872656
0.102453
0.0642949
0.0178846
0.0410615
0.0354941
0.034936
0.0347953
0.0347599
0.034814
0.0353244
0.0411478
0.0180492
0.0064283
0.017871
0.0159899
0.015537
0.0155029
0.0154607
0.0154477
0.0155252
0.0182725
0.00654751
0.00281045
0.00777343
0.00710998
0.00687967
0.00687818
0.00685984
0.00682707
0.00683841
0.00817996
0.00287353
0.0014316
0.0034983
0.00319434
0.00307584
0.00307413
0.003055
0.00302742
0.00302316
0.00379564
0.00146172
0.000820552
0.00151353
0.00146822
0.00140879
0.00140566
0.00139421
0.00137934
0.00134745
0.00163704
0.000835276
0.000512688
0.000928694
0.000689589
0.000661049
0.000657425
0.000654146
0.000643251
0.000630135
0.00116415
0.000522198
0.00034303
0.000455335
0.000336728
0.0003197
0.000318726
0.000316081
0.000311262
0.000301052
0.000774188
0.000349897
0.000241854
0.000341445
0.000172048
0.00015868
0.000159256
0.000157881
0.000155797
0.000152106
0.000431275
0.000247254
0.000177873
0.0002381
9.21723e-05
8.58634e-05
8.46018e-05
8.40171e-05
8.32165e-05
8.01169e-05
0.000199936
0.000183086
0.000135745
0.000143548
5.24941e-05
4.95106e-05
4.8165e-05
4.82164e-05
4.76052e-05
4.57853e-05
0.000127016
0.000140575
0.000106675
7.74104e-05
3.18068e-05
3.01514e-05
2.96221e-05
3.01314e-05
2.95397e-05
2.82458e-05
8.00494e-05
0.000111312
8.58393e-05
4.78779e-05
2.07256e-05
1.98104e-05
1.95388e-05
2.02484e-05
1.97678e-05
1.86641e-05
4.79093e-05
9.04316e-05
7.04939e-05
3.26887e-05
1.44714e-05
1.40572e-05
1.38514e-05
1.46221e-05
1.43377e-05
1.32452e-05
3.15279e-05
7.50908e-05
5.8858e-05
2.44732e-05
1.08659e-05
1.07075e-05
1.06027e-05
1.13227e-05
1.12115e-05
1.01292e-05
2.23966e-05
6.35239e-05
4.98173e-05
1.97601e-05
8.70349e-06
8.69719e-06
8.54853e-06
9.15377e-06
9.28339e-06
8.18704e-06
1.71243e-05
5.4585e-05
4.26117e-05
1.6945e-05
7.3651e-06
7.35295e-06
7.22438e-06
7.69378e-06
8.00035e-06
6.90236e-06
1.38533e-05
4.76472e-05
3.67626e-05
1.52717e-05
6.60394e-06
6.38097e-06
6.25681e-06
6.62248e-06
7.06563e-06
5.99754e-06
1.17299e-05
4.20715e-05
3.18715e-05
1.42809e-05
6.02172e-06
5.69194e-06
5.55566e-06
5.78177e-06
6.34961e-06
5.38943e-06
1.02198e-05
3.76712e-05
2.76807e-05
1.36541e-05
5.9257e-06
5.24289e-06
5.04526e-06
5.16369e-06
5.76198e-06
4.92562e-06
9.08065e-06
3.39541e-05
2.39916e-05
1.35506e-05
5.79945e-06
4.86345e-06
4.71316e-06
4.74237e-06
5.30229e-06
4.65535e-06
8.19419e-06
3.10409e-05
2.06379e-05
1.3643e-05
6.17054e-06
4.79651e-06
4.43513e-06
4.43134e-06
4.95575e-06
4.39754e-06
7.44248e-06
2.8372e-05
1.75185e-05
1.42955e-05
6.34369e-06
4.72914e-06
4.45348e-06
4.26196e-06
4.70185e-06
4.41529e-06
6.87991e-06
2.63947e-05
1.44623e-05
1.45792e-05
7.25677e-06
5.00401e-06
4.47131e-06
4.39774e-06
4.74193e-06
4.4608e-06
6.40727e-06
2.42932e-05
1.14084e-05
1.53015e-05
8.66512e-06
5.27496e-06
4.59715e-06
4.45442e-06
4.74829e-06
4.5539e-06
6.13158e-06
2.28797e-05
8.30375e-06
1.66809e-05
1.08414e-05
6.09914e-06
4.94522e-06
4.83896e-06
5.11504e-06
4.83333e-06
6.21194e-06
2.11281e-05
5.38734e-06
1.86219e-05
1.38572e-05
7.85712e-06
5.774e-06
5.21269e-06
5.37416e-06
5.62489e-06
6.30927e-06
1.96779e-05
3.91392e-06
2.20923e-05
1.89567e-05
1.08098e-05
7.47071e-06
6.28753e-06
6.36053e-06
6.46016e-06
8.79395e-06
1.84146e-05
4.0898e-06
2.47056e-05
2.57657e-05
1.79932e-05
1.08642e-05
8.10303e-06
7.74704e-06
8.34782e-06
1.33268e-05
1.82642e-05
0.310118
0.702106
0.696482
0.696139
0.696053
0.69604
0.696134
0.696486
0.702286
0.310386
0.0630689
0.0873337
0.0708058
0.069463
0.0695852
0.069631
0.0697075
0.0706354
0.0874438
0.0633944
0.0175
0.0354634
0.025886
0.0282359
0.025796
0.0251544
0.0257203
0.0262175
0.0355493
0.0176615
0.00627548
0.0159894
0.0120153
0.00570963
0.0107629
0.0110471
0.0109771
0.00977401
0.0161422
0.00638988
0.00275493
0.00715123
0.0044673
0.000690109
0.00444559
0.00502068
0.00447997
0.00833644
0.00733634
0.0028116
0.00141102
0.00321987
0.00438739
0.00016369
0.00273223
0.00210243
0.001959
0.00581581
0.00335268
0.00143737
0.000810638
0.00147795
0.00338403
0.000106456
0.00185694
0.00129277
0.000912508
0.00401664
0.00156201
0.00082487
0.00051079
0.000692683
0.00166828
5.44413e-05
0.00103231
0.00111043
0.000345835
0.00292133
0.000752674
0.000520071
0.000345165
0.000338537
0.00127459
5.80443e-05
0.000888727
0.000680048
0.000312893
0.0018185
0.000372624
0.00035209
0.00024617
0.000173009
0.00116276
4.02404e-05
0.000587224
0.000357874
0.000191182
0.000942821
0.000191642
0.000251583
0.000182732
9.24594e-05
0.000846744
2.86278e-05
0.00031151
0.000165649
0.000102057
0.000465033
0.000101948
0.000187378
0.000140559
5.27548e-05
0.000455422
1.86859e-05
0.000131006
8.09084e-05
4.35349e-05
0.000235743
5.68292e-05
0.000144418
0.000111247
3.25969e-05
0.000165563
1.0605e-05
5.87816e-05
3.5923e-05
1.97005e-05
0.000103004
3.38081e-05
0.000114579
9.02361e-05
2.17631e-05
0.000135096
5.84727e-06
2.63978e-05
1.63459e-05
9.12812e-06
4.60586e-05
2.14174e-05
9.33379e-05
7.46762e-05
1.5725e-05
9.22482e-05
3.16367e-06
1.19836e-05
7.54003e-06
4.48228e-06
2.06652e-05
1.44571e-05
7.76141e-05
6.28416e-05
1.25426e-05
4.80619e-05
1.92273e-06
5.5171e-06
3.55364e-06
1.88664e-06
9.32619e-06
1.04651e-05
6.58663e-05
5.35893e-05
1.06883e-05
2.42428e-05
1.20263e-06
2.61883e-06
1.74789e-06
1.7357e-06
4.27904e-06
8.0303e-06
5.66357e-05
4.61842e-05
9.6561e-06
1.04746e-05
8.43684e-07
1.29282e-06
9.17896e-07
1.07895e-06
2.017e-06
6.44448e-06
4.95578e-05
4.01308e-05
9.04876e-06
9.77723e-06
4.96816e-07
7.00442e-07
5.36998e-07
6.0032e-07
1.04526e-06
5.33003e-06
4.36299e-05
3.50726e-05
8.77892e-06
5.51509e-06
7.12127e-07
4.21e-07
3.57778e-07
4.15322e-07
5.15104e-07
4.5015e-06
3.91014e-05
3.0728e-05
8.99703e-06
2.84403e-06
6.62412e-07
3.15121e-07
2.66401e-07
3.01201e-07
4.98921e-07
3.84533e-06
3.49731e-05
2.69174e-05
9.10074e-06
1.8997e-06
6.37087e-07
2.37206e-07
2.32237e-07
3.04941e-07
3.43486e-07
3.31515e-06
3.19537e-05
2.3488e-05
9.44177e-06
1.59566e-06
4.80422e-07
2.82255e-07
2.03483e-07
2.89856e-07
3.34085e-07
2.84446e-06
2.88099e-05
2.02975e-05
9.88556e-06
1.69479e-06
4.73932e-07
2.47843e-07
2.3006e-07
2.82041e-07
2.71463e-07
2.45311e-06
2.67207e-05
1.73006e-05
1.06501e-05
1.93224e-06
4.7409e-07
2.72392e-07
2.32926e-07
2.66052e-07
2.76445e-07
2.09045e-06
2.40793e-05
1.44698e-05
1.18043e-05
2.64145e-06
6.36775e-07
2.82567e-07
2.39749e-07
2.61192e-07
2.62503e-07
1.76127e-06
2.24382e-05
1.1751e-05
1.24473e-05
3.96657e-06
8.44834e-07
3.74722e-07
2.93985e-07
2.84384e-07
3.00546e-07
1.50642e-06
1.99899e-05
9.13605e-06
1.35124e-05
6.14325e-06
1.44808e-06
4.94946e-07
3.41743e-07
3.3028e-07
3.30728e-07
1.24725e-06
1.8106e-05
6.8898e-06
1.51313e-05
8.73704e-06
2.49455e-06
8.92139e-07
5.21172e-07
4.20888e-07
4.4776e-07
1.18919e-06
1.48744e-05
5.29041e-06
1.70975e-05
1.28226e-05
4.73595e-06
1.69831e-06
7.90026e-07
5.89779e-07
5.80926e-07
1.63482e-06
1.28097e-05
0.309818
0.70182
0.696133
0.695789
0.695698
0.695692
0.695774
0.696119
0.701994
0.3101
0.062627
0.0863808
0.0697405
0.068751
0.0683136
0.0686024
0.0687722
0.0697113
0.0864949
0.0629478
0.0172657
0.0349105
0.0259148
0.0273625
0.0283287
0.0271633
0.0268347
0.0251655
0.0349441
0.0174194
0.00616492
0.0155456
0.00929683
0.00157899
0.0020814
0.00148642
0.00256946
0.0094505
0.0156834
0.00627131
0.00270084
0.00700164
0.00949387
6.11179e-05
1.62244e-06
3.93906e-05
5.40695e-05
0.00738573
0.00705484
0.00275269
0.00138222
0.00312875
0.00677579
1.99543e-05
5.83779e-08
1.32488e-05
5.95407e-05
0.00474696
0.00319364
0.00140668
0.000793227
0.00143875
0.00524779
8.74391e-05
7.12034e-08
2.40644e-06
2.73204e-05
0.00319833
0.00147806
0.000806977
0.000500094
0.000672017
0.0031563
3.79769e-05
8.42327e-08
8.83956e-07
1.54442e-05
0.00190701
0.000699634
0.000509231
0.000338381
0.000323862
0.00167254
7.50683e-06
6.91294e-08
4.97385e-07
1.07155e-05
0.000941069
0.000340254
0.000345473
0.000241825
0.000161285
0.000691192
1.81789e-06
7.10621e-08
5.83236e-07
5.41024e-06
0.000657052
0.000170201
0.000247574
0.000179643
8.61378e-05
0.000332505
1.2351e-06
7.31013e-08
2.44529e-07
2.94444e-06
0.000378174
8.97932e-05
0.000184891
0.000138319
4.97494e-05
0.000158788
5.25989e-07
5.42764e-08
9.22206e-08
1.32845e-06
0.000196822
5.02381e-05
0.000142964
0.000109594
3.15438e-05
7.00431e-05
2.87342e-07
6.29023e-08
3.75457e-08
7.8814e-07
9.78358e-05
3.01743e-05
0.000113802
8.89324e-05
2.1679e-05
3.24395e-05
1.47262e-07
6.5659e-08
2.26521e-08
4.00723e-07
4.97725e-05
1.9453e-05
9.30856e-05
7.36493e-05
1.62556e-05
1.57792e-05
1.0676e-07
5.34728e-08
2.21668e-08
2.18646e-07
2.17924e-05
1.34744e-05
7.76948e-05
6.19908e-05
1.31932e-05
6.24247e-06
7.80743e-08
3.58765e-08
1.80743e-08
8.83873e-08
9.78318e-06
1.00493e-05
6.61881e-05
5.28862e-05
1.13898e-05
5.67398e-06
1.40309e-07
2.45653e-08
1.27621e-08
6.80828e-08
4.41115e-06
7.88067e-06
5.70737e-05
4.56074e-05
1.03693e-05
3.30925e-06
1.39036e-07
1.2819e-08
8.74468e-09
4.58498e-08
2.01195e-06
6.45799e-06
5.01268e-05
3.96403e-05
9.71641e-06
1.8127e-06
1.08386e-07
1.7321e-08
4.98846e-09
2.38614e-08
9.389e-07
5.37669e-06
4.42171e-05
3.46596e-05
9.48855e-06
1.28508e-06
8.40234e-08
1.62875e-08
6.43031e-09
2.12325e-08
4.58794e-07
4.57914e-06
3.97752e-05
3.03777e-05
9.34735e-06
1.11657e-06
7.57099e-08
1.61381e-08
6.03846e-09
1.71975e-08
2.40767e-07
3.88674e-06
3.56029e-05
2.66553e-05
9.79942e-06
1.1603e-06
8.86531e-08
1.60841e-08
4.96164e-09
1.44425e-08
1.39292e-07
3.33619e-06
3.26301e-05
2.32749e-05
9.83582e-06
1.2695e-06
1.08628e-07
1.92193e-08
4.02034e-09
1.18779e-08
8.85329e-08
2.81655e-06
2.94189e-05
2.02329e-05
1.04577e-05
1.55399e-06
1.57568e-07
1.76801e-08
5.80809e-09
1.08395e-08
6.12159e-08
2.40142e-06
2.73229e-05
1.7308e-05
1.09335e-05
1.9091e-06
2.26119e-07
3.90509e-08
6.31275e-09
9.90632e-09
4.41684e-08
1.96331e-06
2.45927e-05
1.4564e-05
1.17718e-05
2.42004e-06
3.45695e-07
4.54318e-08
1.22044e-08
1.02298e-08
3.33381e-08
1.63897e-06
2.28686e-05
1.19693e-05
1.20325e-05
3.7083e-06
5.47069e-07
1.03434e-07
1.57431e-08
8.58187e-09
2.45167e-08
1.23964e-06
2.02047e-05
9.4914e-06
1.25192e-05
5.23612e-06
1.00062e-06
1.63591e-07
3.90312e-08
1.85941e-08
2.42549e-08
1.01743e-06
1.83141e-05
7.2329e-06
1.33654e-05
7.07447e-06
1.62859e-06
3.60139e-07
6.55805e-08
2.07445e-08
2.42147e-08
7.00384e-07
1.47364e-05
5.18211e-06
1.43164e-05
9.29468e-06
2.7612e-06
6.87771e-07
1.83811e-07
5.87075e-08
4.13247e-08
7.5271e-07
1.23541e-05
0.309744
0.701737
0.696041
0.695667
0.695589
0.69561
0.6957
0.696054
0.701914
0.310027
0.0624928
0.0862298
0.0696358
0.0685632
0.06842
0.0681564
0.0688063
0.0696169
0.0863404
0.0628121
0.0171802
0.0347865
0.0251686
0.0268891
0.0268704
0.0283069
0.0236055
0.0249337
0.034828
0.0173323
0.0061188
0.0155073
0.0111691
0.00255607
0.00222483
0.00164933
0.0126149
0.0107662
0.0156309
0.00622266
0.00267509
0.00689346
0.00494147
2.81666e-07
2.38817e-07
8.16343e-07
1.38581e-05
0.00436798
0.00700508
0.00272615
0.00136673
0.00307448
0.00243825
1.97489e-08
3.69982e-08
7.32991e-11
8.74948e-08
0.00262997
0.00315815
0.00139139
0.000783345
0.00140732
0.00189577
2.25083e-08
1.49342e-08
3.56262e-10
6.63777e-08
0.00173223
0.00145302
0.00079737
0.000493467
0.000658094
0.000945945
1.09239e-07
8.48089e-09
8.42484e-12
4.41938e-08
0.000931195
0.000683651
0.000502724
0.000333755
0.000318378
0.000580144
7.43859e-07
4.07379e-09
1.39491e-11
3.44725e-08
0.000326602
0.000330654
0.000340826
0.000238485
0.000159253
0.000311552
4.02023e-07
3.32021e-09
8.14284e-12
2.30157e-08
0.000301802
0.000164733
0.000244197
0.000177169
8.51654e-05
0.000165948
3.69765e-07
2.07099e-09
6.91092e-12
1.20507e-08
0.000189036
8.69855e-05
0.000182375
0.000136427
4.92139e-05
6.98541e-05
4.47901e-07
1.62829e-09
9.66208e-12
6.26283e-09
0.000100544
4.86783e-05
0.000141144
0.000108153
3.12352e-05
3.12178e-05
2.59043e-07
9.73915e-10
8.65714e-12
4.87495e-09
4.23589e-05
2.91202e-05
0.000112375
8.78289e-05
2.13812e-05
1.40049e-05
3.92589e-07
2.90089e-10
4.89231e-12
3.31038e-09
1.91919e-05
1.86816e-05
9.18566e-05
7.27895e-05
1.59341e-05
7.06416e-06
2.21255e-07
2.58472e-10
7.14904e-12
1.7246e-09
8.39499e-06
1.28325e-05
7.65971e-05
6.13043e-05
1.27954e-05
3.84964e-06
1.82666e-07
1.85332e-10
6.0734e-12
1.30406e-09
4.43781e-06
9.5216e-06
6.52254e-05
5.2354e-05
1.10199e-05
1.77238e-06
1.15791e-07
1.00391e-10
1.28992e-11
9.86544e-10
2.2853e-06
7.49416e-06
5.62255e-05
4.51722e-05
9.96271e-06
1.73847e-06
7.24142e-08
1.69495e-09
1.50782e-11
6.10906e-10
1.06109e-06
6.20863e-06
4.93763e-05
3.93029e-05
9.34889e-06
1.22885e-06
5.6087e-08
1.5458e-09
7.56263e-12
4.22653e-10
5.26156e-07
5.27164e-06
4.35617e-05
3.43933e-05
9.02525e-06
9.82706e-07
5.36471e-08
1.9804e-09
8.93091e-11
4.22296e-10
2.82269e-07
4.59348e-06
3.92118e-05
3.01812e-05
9.10718e-06
9.48394e-07
5.86403e-08
3.20263e-09
6.6575e-11
4.99547e-10
1.68525e-07
3.99759e-06
3.51442e-05
2.65029e-05
9.24658e-06
1.03257e-06
7.29003e-08
3.40927e-09
3.39078e-10
5.51185e-10
1.12646e-07
3.52395e-06
3.22821e-05
2.31747e-05
9.43219e-06
1.16308e-06
9.71902e-08
8.55863e-09
9.47411e-11
4.90587e-10
8.28197e-08
3.04261e-06
2.91876e-05
2.01559e-05
1.00223e-05
1.44536e-06
1.39543e-07
1.12479e-08
1.66517e-09
6.42147e-10
6.33246e-08
2.651e-06
2.72141e-05
1.726e-05
1.05502e-05
1.79063e-06
2.05878e-07
2.86496e-08
1.63277e-09
7.46767e-10
4.99981e-08
2.20607e-06
2.45992e-05
1.45204e-05
1.14973e-05
2.29208e-06
3.14887e-07
3.64165e-08
7.06818e-09
1.1803e-09
3.69051e-08
1.86829e-06
2.30134e-05
1.19001e-05
1.18309e-05
3.5259e-06
5.08787e-07
8.3568e-08
8.21409e-09
1.39628e-09
2.8961e-08
1.43754e-06
2.04299e-05
9.37497e-06
1.24127e-05
5.12497e-06
9.46193e-07
1.45621e-07
3.0431e-08
5.41787e-09
1.6982e-08
1.18593e-06
1.85364e-05
7.00905e-06
1.31812e-05
6.9041e-06
1.5726e-06
3.34456e-07
5.30043e-08
5.66934e-09
1.96283e-08
8.04042e-07
1.50723e-05
4.84081e-06
1.41909e-05
9.11638e-06
2.64229e-06
6.3815e-07
1.73833e-07
4.50947e-08
2.69373e-08
8.18128e-07
1.1846e-05
0.309745
0.701738
0.696042
0.695668
0.69559
0.695613
0.695699
0.696061
0.701913
0.310026
0.0624928
0.0862494
0.0696301
0.0686615
0.0685263
0.0681693
0.0684849
0.0692285
0.0863761
0.0628114
0.0171803
0.0347739
0.0250967
0.0259786
0.0260706
0.0282502
0.0265991
0.0285048
0.034877
0.0173311
0.00611878
0.0154674
0.0111435
0.00450517
0.00369645
0.00167246
0.00540131
0.00302087
0.015502
0.00622201
0.00267512
0.00685802
0.00467346
1.18512e-05
3.32974e-07
8.97165e-07
9.99807e-07
7.73011e-05
0.00685413
0.00272467
0.00136659
0.00306186
0.00282693
9.00641e-06
3.89165e-08
2.03239e-09
2.03865e-08
6.39794e-06
0.00305859
0.00138996
0.00078365
0.00140261
0.00234948
3.74314e-06
6.13633e-10
1.86599e-12
1.75159e-08
3.96022e-06
0.00139802
0.000796441
0.000493506
0.000654024
0.00121846
1.04088e-06
4.71815e-11
9.78211e-12
8.60407e-09
3.29235e-06
0.000654535
0.000502411
0.000333725
0.000316104
0.000678806
7.7012e-07
2.22605e-09
1.48041e-11
4.1142e-09
1.4488e-06
0.0003161
0.000340782
0.000238477
0.0001569
0.000160626
3.48305e-07
6.9439e-09
3.22729e-11
2.57358e-09
7.34147e-07
0.000157366
0.000244231
0.00017726
8.34606e-05
3.47993e-05
5.91286e-08
2.31321e-09
1.69067e-11
1.37868e-09
3.96082e-07
8.33827e-05
0.000182431
0.000136524
4.76722e-05
6.98846e-06
1.56607e-08
3.12856e-09
8.79294e-12
8.15256e-10
2.05891e-07
4.67898e-05
0.000141176
0.000108189
2.97388e-05
1.66633e-06
5.76363e-09
1.18486e-09
9.83108e-12
6.01957e-10
1.42447e-07
2.82256e-05
0.000112409
8.78364e-05
2.01034e-05
7.71227e-07
3.53915e-09
1.47209e-09
7.51959e-12
4.65757e-10
7.47844e-08
1.81923e-05
9.18723e-05
7.27517e-05
1.48372e-05
3.63456e-07
3.68214e-09
3.5847e-10
8.62815e-12
5.17858e-10
1.20821e-07
1.25855e-05
7.65953e-05
6.12835e-05
1.20128e-05
4.38184e-07
5.67627e-09
7.08103e-10
1.18515e-11
6.7943e-10
1.32752e-07
9.39061e-06
6.52123e-05
5.2311e-05
1.03372e-05
4.74381e-07
9.68251e-09
2.30254e-10
2.45806e-11
5.00803e-10
1.28588e-07
7.46696e-06
5.62397e-05
4.51343e-05
9.44177e-06
5.4846e-07
1.35681e-08
7.08964e-10
2.51085e-11
5.51445e-10
1.17677e-07
6.17088e-06
4.93914e-05
3.92727e-05
8.83098e-06
5.78299e-07
2.00336e-08
4.92736e-10
4.20377e-11
5.71749e-10
1.05944e-07
5.2328e-06
4.36011e-05
3.43587e-05
8.75804e-06
6.3468e-07
2.7419e-08
1.44626e-09
4.23079e-11
5.20987e-10
9.26268e-08
4.4943e-06
3.92229e-05
3.01544e-05
8.79128e-06
7.22263e-07
3.75628e-08
1.55418e-09
1.26172e-10
4.6081e-10
7.98316e-08
3.85374e-06
3.51355e-05
2.64642e-05
8.89924e-06
8.89271e-07
5.65523e-08
4.16456e-09
7.63281e-11
4.65302e-10
6.72363e-08
3.32444e-06
3.22126e-05
2.31719e-05
9.27774e-06
1.06739e-06
8.0594e-08
5.08951e-09
5.54328e-10
4.31999e-10
5.55142e-08
2.82759e-06
2.90653e-05
2.00926e-05
9.69213e-06
1.3601e-06
1.26364e-07
1.31423e-08
6.76939e-10
4.45664e-10
4.45298e-08
2.39453e-06
2.69893e-05
1.72099e-05
1.02331e-05
1.70753e-06
1.93694e-07
1.82079e-08
2.48706e-09
3.90949e-10
3.48912e-08
1.98317e-06
2.43491e-05
1.44711e-05
1.12582e-05
2.17768e-06
2.94598e-07
4.36685e-08
3.74184e-09
1.04505e-09
2.59727e-08
1.63746e-06
2.25984e-05
1.18626e-05
1.17124e-05
3.48035e-06
5.2427e-07
6.66126e-08
1.2352e-08
6.702e-10
1.88627e-08
1.22429e-06
2.00027e-05
9.32898e-06
1.22732e-05
5.00589e-06
9.29672e-07
1.62979e-07
2.14581e-08
5.1908e-09
1.1889e-08
9.96543e-07
1.78445e-05
6.98068e-06
1.31005e-05
6.83888e-06
1.51911e-06
2.91508e-07
6.7173e-08
7.72623e-09
1.3884e-08
6.70873e-07
1.48305e-05
4.80767e-06
1.40709e-05
9.00277e-06
2.66451e-06
6.4773e-07
1.49834e-07
4.42598e-08
1.76692e-08
7.09162e-07
1.10387e-05
0.309819
0.701817
0.696162
0.695784
0.695678
0.695678
0.695779
0.696135
0.701994
0.310099
0.0626282
0.0863752
0.0694672
0.0688733
0.0687907
0.0687092
0.0689245
0.069818
0.0865178
0.0629458
0.0172656
0.0348829
0.0286397
0.0259688
0.0234913
0.0239695
0.0236644
0.0252368
0.0348838
0.0174165
0.00616531
0.0153712
0.00438345
0.00448241
0.0121283
0.0114677
0.0122451
0.00882693
0.0155421
0.0062679
0.00270021
0.00679356
0.000812799
8.00128e-07
0.000768787
2.2382e-05
0.000697586
0.000602396
0.00686671
0.00274989
0.00138178
0.00300641
0.000348168
8.88694e-08
0.000321957
3.11848e-07
0.000145368
0.000124807
0.00304114
0.00140494
0.000793371
0.0013683
0.000170567
2.81057e-08
0.000169946
1.66214e-07
4.19634e-05
5.82836e-05
0.00138458
0.000806214
0.000500294
0.000638461
8.67739e-05
1.20367e-08
7.00721e-05
7.89333e-08
1.34627e-05
2.53242e-05
0.000645728
0.00050896
0.0003385
0.000308873
3.3976e-05
8.64419e-09
3.44003e-05
3.56182e-08
6.67579e-06
1.18762e-05
0.000311343
0.000345256
0.00024187
0.000154977
3.48684e-05
1.4824e-08
2.05649e-05
3.11614e-08
2.52463e-06
4.43669e-06
0.000155626
0.000247439
0.000179706
8.34287e-05
2.29936e-05
4.61724e-08
1.09408e-05
2.94319e-08
1.92062e-06
4.49798e-06
8.30287e-05
0.000184702
0.000138341
4.85387e-05
1.23492e-05
7.85453e-08
5.79141e-06
2.09418e-08
1.17468e-06
3.24995e-06
4.73117e-05
0.000142925
0.000109618
3.09282e-05
7.40059e-06
4.30871e-08
2.28938e-06
1.44054e-08
7.79995e-07
2.52688e-06
2.91039e-05
0.000113867
8.89662e-05
2.13422e-05
4.23014e-06
1.02161e-07
1.40214e-06
1.34897e-08
5.02917e-07
1.82672e-06
1.90603e-05
9.31419e-05
7.36772e-05
1.60384e-05
2.2415e-06
1.00481e-07
6.29514e-07
1.15271e-08
3.73525e-07
1.06226e-06
1.33744e-05
7.7714e-05
6.20128e-05
1.30222e-05
1.43054e-06
6.08743e-08
5.10755e-07
8.11294e-09
2.00964e-07
5.52573e-07
1.01209e-05
6.61835e-05
5.29092e-05
1.1286e-05
9.02241e-07
4.74904e-08
2.37603e-07
1.12855e-08
7.44298e-08
3.32799e-07
8.09376e-06
5.70942e-05
4.56189e-05
1.02976e-05
9.64119e-07
3.76466e-08
2.01257e-07
9.63001e-09
6.24112e-08
2.30324e-07
6.71496e-06
5.01508e-05
3.96674e-05
9.71871e-06
8.54003e-07
3.43605e-08
1.53949e-07
9.39919e-09
4.75118e-08
1.74467e-07
5.69885e-06
4.43032e-05
3.46755e-05
9.36222e-06
8.17562e-07
3.97999e-08
7.4031e-08
9.05048e-09
2.4681e-08
1.31852e-07
4.86807e-06
3.98465e-05
3.04097e-05
9.52881e-06
8.63728e-07
4.77436e-08
6.88574e-08
1.04054e-08
2.08353e-08
1.08413e-07
4.17737e-06
3.57467e-05
2.6672e-05
9.59532e-06
1.02198e-06
6.88783e-08
3.58104e-08
6.921e-09
1.68741e-08
8.93236e-08
3.57519e-06
3.27264e-05
2.33093e-05
9.85613e-06
1.18996e-06
9.8474e-08
3.37937e-08
9.4367e-09
1.16254e-08
7.26513e-08
3.01767e-06
2.95761e-05
2.02624e-05
1.04746e-05
1.53746e-06
1.50319e-07
2.45265e-08
9.39792e-09
7.93264e-09
5.88969e-08
2.57014e-06
2.74351e-05
1.73302e-05
1.09674e-05
1.87259e-06
2.24639e-07
3.84256e-08
7.84949e-09
7.75793e-09
4.56734e-08
2.08836e-06
2.47355e-05
1.45801e-05
1.18144e-05
2.43862e-06
3.45005e-07
4.73027e-08
1.3909e-08
6.16952e-09
3.63627e-08
1.73883e-06
2.30077e-05
1.19722e-05
1.20331e-05
3.71678e-06
5.48663e-07
1.0061e-07
1.65053e-08
1.20115e-08
2.64465e-08
1.3172e-06
2.03456e-05
9.48693e-06
1.24985e-05
5.24931e-06
1.01929e-06
1.68887e-07
4.14368e-08
1.22843e-08
2.57459e-08
1.05204e-06
1.83874e-05
7.21507e-06
1.32699e-05
7.03701e-06
1.61676e-06
3.55044e-07
6.82639e-08
3.18919e-08
2.68892e-08
6.7219e-07
1.46232e-05
5.17673e-06
1.41538e-05
9.16361e-06
2.77206e-06
6.86837e-07
1.85992e-07
5.39066e-08
3.74356e-08
7.17614e-07
1.27683e-05
0.310112
0.702107
0.696474
0.696147
0.696039
0.696048
0.696131
0.696472
0.70228
0.310387
0.0630779
0.0872336
0.0707568
0.0697834
0.069582
0.0695649
0.0699801
0.0703414
0.0873631
0.0633953
0.0175031
0.0352459
0.0255822
0.0247869
0.025181
0.0253485
0.023721
0.0277366
0.0353241
0.0176556
0.00627206
0.0155651
0.0110952
0.0118657
0.00871577
0.00876415
0.0119851
0.00636771
0.0156433
0.00638026
0.00275424
0.0068821
0.00486818
0.0011936
0.00877405
0.00884103
0.000661084
0.00265539
0.00691689
0.00280377
0.00141016
0.00304258
0.00212533
0.000136694
0.0059436
0.00426881
6.37495e-05
0.00110336
0.00308133
0.0014338
0.000810323
0.00135212
0.000930367
4.10233e-05
0.00443281
0.0027322
2.15568e-05
0.000472214
0.0013677
0.000823197
0.000510445
0.000624472
0.000433897
1.98542e-05
0.00279226
0.00147187
1.09412e-05
0.000206093
0.000643246
0.000519242
0.000345025
0.000298513
0.000148541
9.98869e-06
0.00147317
0.000487398
6.42787e-06
9.47412e-05
0.00030571
0.000351425
0.000245764
0.000151364
0.000172153
5.67487e-06
0.000615322
0.000532727
2.61439e-06
3.61336e-05
0.000158374
0.000251262
0.000182609
8.21107e-05
0.000135929
3.42732e-06
0.000272024
0.000373628
4.79817e-06
3.18709e-05
8.43111e-05
0.00018707
0.000140409
4.86031e-05
0.000111417
2.45712e-06
0.000123738
0.000198479
3.95577e-06
2.27571e-05
4.78566e-05
0.000144362
0.000111229
3.09926e-05
8.68396e-05
1.53767e-06
4.88273e-05
8.34896e-05
3.41061e-06
1.24267e-05
2.90398e-05
0.000114646
9.02828e-05
2.14619e-05
4.22782e-05
1.02281e-06
3.69127e-05
3.75546e-05
2.68118e-06
5.58986e-06
1.8886e-05
9.3415e-05
7.47555e-05
1.6007e-05
3.34281e-05
8.10331e-07
1.98941e-05
1.7071e-05
1.67616e-06
2.79404e-06
1.31507e-05
7.76702e-05
6.29522e-05
1.29727e-05
2.93974e-05
6.47062e-07
8.72501e-06
7.79591e-06
9.24945e-07
1.51448e-06
9.82485e-06
6.59152e-05
5.37089e-05
1.11613e-05
2.24136e-05
8.2336e-07
4.05651e-06
3.64411e-06
6.30834e-07
9.06974e-07
7.77193e-06
5.67035e-05
4.63082e-05
1.00506e-05
1.76256e-05
6.95459e-07
1.98231e-06
1.77867e-06
4.60078e-07
6.09825e-07
6.42813e-06
4.9645e-05
4.02648e-05
9.51391e-06
9.62369e-06
6.04614e-07
8.6116e-07
9.19551e-07
3.6681e-07
4.43991e-07
5.44363e-06
4.37533e-05
3.51845e-05
9.16936e-06
4.512e-06
4.22972e-07
8.55672e-07
5.55057e-07
3.08998e-07
3.52508e-07
4.6942e-06
3.92441e-05
3.08568e-05
9.40703e-06
2.54668e-06
5.24987e-07
7.19427e-07
3.27945e-07
2.80411e-07
2.97682e-07
4.06245e-06
3.5149e-05
2.70183e-05
9.45821e-06
1.89406e-06
4.43438e-07
6.26421e-07
3.58612e-07
2.54045e-07
2.69079e-07
3.52857e-06
3.21269e-05
2.36108e-05
9.89742e-06
1.70878e-06
3.9036e-07
5.53525e-07
3.38946e-07
2.70572e-07
2.45123e-07
3.05746e-06
2.90375e-05
2.04027e-05
1.03168e-05
1.8058e-06
4.3161e-07
3.86664e-07
3.26189e-07
2.72179e-07
2.65198e-07
2.63959e-06
2.69283e-05
1.73818e-05
1.1043e-05
2.04748e-06
4.70384e-07
4.09154e-07
2.78319e-07
2.81767e-07
2.52245e-07
2.25974e-06
2.43483e-05
1.45111e-05
1.20382e-05
2.74503e-06
6.41925e-07
3.6555e-07
3.08376e-07
2.76953e-07
2.99168e-07
1.90959e-06
2.27736e-05
1.1752e-05
1.25917e-05
4.10432e-06
8.75338e-07
4.62277e-07
3.10942e-07
3.16963e-07
3.00599e-07
1.63053e-06
2.01348e-05
9.07002e-06
1.35407e-05
6.2138e-06
1.45867e-06
5.48401e-07
3.7713e-07
3.47277e-07
3.74013e-07
1.30842e-06
1.85607e-05
6.75872e-06
1.51226e-05
8.80464e-06
2.55821e-06
9.67423e-07
5.10923e-07
4.41293e-07
4.42502e-07
1.30243e-06
1.51182e-05
5.1895e-06
1.71156e-05
1.2943e-05
4.78762e-06
1.72948e-06
7.9937e-07
6.0985e-07
6.00883e-07
1.64168e-06
1.32445e-05
0.311239
0.705176
0.702285
0.701995
0.701911
0.701911
0.701994
0.702278
0.705286
0.311504
0.0640321
0.102451
0.0874234
0.0865025
0.0863376
0.0863342
0.0864909
0.0873742
0.102546
0.0643412
0.017885
0.0411296
0.0355081
0.0349246
0.0348193
0.0347928
0.0348305
0.0353348
0.0412324
0.0180751
0.00642558
0.0182673
0.0161578
0.0157408
0.0156166
0.0155754
0.0155837
0.0156439
0.0186693
0.00656564
0.00280857
0.00818924
0.00736184
0.00704084
0.00705114
0.00702427
0.0069143
0.00690942
0.00860241
0.00288395
0.0014313
0.00380364
0.00334055
0.00315332
0.00319883
0.00317725
0.00307325
0.00307689
0.00405162
0.0014663
0.00082134
0.00165383
0.00153931
0.00144318
0.0014842
0.00146265
0.00140066
0.00136686
0.00177129
0.000837066
0.000513487
0.00113567
0.000726364
0.000677021
0.000704179
0.000690428
0.000654395
0.000642857
0.00128171
0.000522788
0.000344143
0.000577786
0.000357021
0.000327668
0.000343585
0.00033441
0.000316074
0.000306282
0.000850512
0.000350192
0.000242229
0.000415048
0.000180632
0.000163323
0.000171687
0.000167429
0.000158195
0.000158995
0.000607561
0.000247928
0.000178114
0.000289411
9.71101e-05
8.72084e-05
9.06538e-05
8.88596e-05
8.46648e-05
8.5106e-05
0.000423441
0.000183342
0.000135965
0.000172929
5.52161e-05
4.97031e-05
5.12905e-05
5.05631e-05
4.8762e-05
4.8953e-05
0.000241863
0.00014091
0.000106938
9.28855e-05
3.36656e-05
3.07886e-05
3.14964e-05
3.11885e-05
3.05999e-05
3.04165e-05
0.000119408
0.000111618