/*--------------------------------*- C++ -*----------------------------------*\
| =========                 |                                                 |
| \\      /  F ield         | OpenFOAM: The Open Source CFD Toolbox           |
|  \\    /   O peration     | Version:  4.1                                   |
|   \\  /    A nd           | Web:      www.OpenFOAM.org                      |
|    \\/     M anipulation  |                                                 |
\*---------------------------------------------------------------------------*/
FoamFile
{
    version     2.0;
    format      ascii;
    class       volScalarField;
    location    "800";
    object      k;
}
// * * * * * * * * * * * * * * * * * * * * * * * * * * * * * * * * * * * * * //

dimensions      [0 2 -2 0 0 0 0];

internalField   nonuniform List<scalar> 
12000
(
0.116714
0.114692
0.114393
0.114319
0.114301
0.114302
0.11432
0.114392
0.114669
0.11669
0.0404707
0.0399599
0.0395614
0.0393763
0.0393202
0.0393205
0.0393774
0.0395659
0.0399634
0.0404822
0.0169466
0.017077
0.0168305
0.0166806
0.0166257
0.0166262
0.0166813
0.0168326
0.0170774
0.0169525
0.00839663
0.00863412
0.00849808
0.00839714
0.00835551
0.00835562
0.00839827
0.0084979
0.00863405
0.00840441
0.00477023
0.00497446
0.00490737
0.00484429
0.00481373
0.00481436
0.00484478
0.00490581
0.00497398
0.00477619
0.00301537
0.00317372
0.00314139
0.00310039
0.0030776
0.0030783
0.00310115
0.00314041
0.00317454
0.00302016
0.00206675
0.00219084
0.00217286
0.00214245
0.00212495
0.00212546
0.00214363
0.00217311
0.00219192
0.00207218
0.00150534
0.00160207
0.00159843
0.00157604
0.00156254
0.00156317
0.00157765
0.00159939
0.00160541
0.00151233
0.0011487
0.00122646
0.00123195
0.00121591
0.00120526
0.00120578
0.00121745
0.0012332
0.00122929
0.00115707
0.000908869
0.00097241
0.000984073
0.000972798
0.000964369
0.000965041
0.000974462
0.000985988
0.000974721
0.000918307
0.00073995
0.000793241
0.000808058
0.000799741
0.000792869
0.000793164
0.000801271
0.000810431
0.000796768
0.000750648
0.000616896
0.000663434
0.000679101
0.000673055
0.000667669
0.000667982
0.000674873
0.000682221
0.000666983
0.000628704
0.000524416
0.000566023
0.000582008
0.000577438
0.000573269
0.000573804
0.000579554
0.000585768
0.000570194
0.000537492
0.00045295
0.000490858
0.00050729
0.000503807
0.000500648
0.000501345
0.000506246
0.000511679
0.000496009
0.000467542
0.00039638
0.000431746
0.000448409
0.000445795
0.0004435
0.000444415
0.000448593
0.000453554
0.00043793
0.000412854
0.000350577
0.000384247
0.000401167
0.000399384
0.000397792
0.000398937
0.000402585
0.000407053
0.000391654
0.000369275
0.000312683
0.000345375
0.000362453
0.000361492
0.000360445
0.000361766
0.000365078
0.000369442
0.000354561
0.000334261
0.000280621
0.00031294
0.000330274
0.000330134
0.000329697
0.000331313
0.000334407
0.000338459
0.000324271
0.000305604
0.000252874
0.000285455
0.000303063
0.000303711
0.000303808
0.000305571
0.000308708
0.000312916
0.000299763
0.000282385
0.000228191
0.000261529
0.000279662
0.000281295
0.00028205
0.000284317
0.000287396
0.000291454
0.000279331
0.000262977
0.000205542
0.000240072
0.000259205
0.000261841
0.000263028
0.000265566
0.000269063
0.000273722
0.000263045
0.000247558
0.000183969
0.00022025
0.00024084
0.00024488
0.000246946
0.000250287
0.000253804
0.000258498
0.000249192
0.000234408
0.00016249
0.000200857
0.000224064
0.000229596
0.00023216
0.000235867
0.000240333
0.000246159
0.000238808
0.000224729
0.000139948
0.000181251
0.00020787
0.000215849
0.000219792
0.000224564
0.000229053
0.000235225
0.000229736
0.000216337
0.000114977
0.000159326
0.000191284
0.000202321
0.000207065
0.000212579
0.000218884
0.000226935
0.000223839
0.000211625
8.48625e-05
0.000134408
0.000173268
0.000189205
0.00019666
0.000203448
0.000209662
0.000218888
0.000218188
0.000207729
4.83691e-05
0.000102219
0.000151645
0.000173142
0.000183159
0.000191974
0.000201226
0.000213521
0.000215474
0.000208488
3.0181e-05
6.83997e-05
0.000122416
0.000155431
0.000171431
0.000181909
0.000190883
0.000206286
0.000213195
0.000209512
3.87001e-05
5.8324e-05
8.23406e-05
0.000113412
0.00014786
0.000168265
0.000180626
0.000200149
0.000212952
0.000215711
6.2399e-05
8.29719e-05
8.76854e-05
9.4153e-05
0.000102887
0.000128599
0.000158488
0.000184462
0.000209761
0.00022512
0.114692
0.0303112
0.0280753
0.0280572
0.0280565
0.0280565
0.0280571
0.0280752
0.0303152
0.114724
0.0399586
0.00626237
0.00410097
0.00405183
0.00404946
0.00404913
0.00405188
0.00409915
0.00626132
0.0400712
0.0170753
0.00407405
0.00244075
0.00241614
0.00241469
0.00241632
0.00241297
0.00243925
0.00406867
0.0171799
0.00863201
0.00271503
0.00160984
0.00155899
0.00155839
0.00155054
0.00155717
0.00158951
0.00269598
0.0087384
0.00497239
0.00185744
0.00119303
0.00122067
0.00121945
0.00122816
0.00120547
0.00117856
0.00185358
0.00504652
0.00317148
0.00136424
0.000874
0.000896992
0.000900752
0.000907025
0.00088906
0.000866934
0.00137962
0.00321582
0.00218836
0.00106088
0.000646724
0.000636673
0.000635045
0.000636207
0.000626123
0.000629479
0.00106698
0.00221446
0.00159937
0.000791468
0.000468528
0.000456198
0.000455414
0.000456247
0.000450533
0.000453506
0.00082652
0.00161909
0.0012235
0.00065156
0.000334832
0.000323283
0.000324682
0.000325502
0.000323879
0.00032361
0.000619682
0.00123977
0.000969208
0.000521323
0.00023935
0.000229366
0.000234541
0.000234379
0.000231978
0.000231944
0.000518042
0.00098358
0.000789685
0.000399583
0.000178105
0.000168748
0.000173995
0.000176151
0.000171986
0.000169107
0.000406111
0.000805042
0.000659474
0.000307437
0.000133071
0.000125919
0.000130974
0.000136979
0.000129174
0.000124019
0.0003118
0.000675026
0.000561593
0.000235288
0.000101831
9.91126e-05
0.000102261
0.00011154
0.000102998
9.53771e-05
0.000238828
0.000577755
0.000485854
0.000192404
8.33295e-05
8.36433e-05
8.55879e-05
9.7639e-05
8.91236e-05
7.94035e-05
0.000184941
0.000503031
0.000426071
0.000165154
7.35233e-05
7.6282e-05
7.54184e-05
8.66119e-05
8.14666e-05
6.97517e-05
0.00014975
0.000444398
0.000377791
0.000148886
6.71054e-05
7.00253e-05
6.89771e-05
7.88171e-05
7.63935e-05
6.41692e-05
0.000127999
0.000397502
0.00033804
0.000139425
6.24807e-05
6.55147e-05
6.32306e-05
7.09149e-05
7.25645e-05
5.95367e-05
0.000115277
0.000359278
0.000304603
0.00013483
6.18061e-05
6.1137e-05
5.97659e-05
6.51128e-05
6.91526e-05
5.61452e-05
0.000106319
0.00032815
0.000276048
0.000134989
6.16163e-05
5.64984e-05
5.5365e-05
5.96157e-05
6.5635e-05
5.31027e-05
0.000100246
0.000302023
0.000250986
0.000135327
6.12177e-05
5.59458e-05
5.29111e-05
5.43176e-05
6.24333e-05
5.22976e-05
9.47424e-05
0.000280578
0.000228472
0.000136536
6.35563e-05
5.54211e-05
5.17028e-05
5.18566e-05
5.90633e-05
5.08518e-05
9.00203e-05
0.000261804
0.000207693
0.000139724
6.60151e-05
5.55054e-05
5.12414e-05
5.05434e-05
5.71531e-05
5.16164e-05
8.57282e-05
0.000246606
0.000187856
0.000146577
7.07036e-05
5.532e-05
5.26996e-05
4.91284e-05
5.56791e-05
5.10129e-05
8.13736e-05
0.00023226
0.000168414
0.000154732
7.63456e-05
5.67099e-05
5.25268e-05
5.15898e-05
5.63688e-05
5.26406e-05
7.8324e-05
0.00022134
0.000148208
0.000160776
8.65973e-05
5.95959e-05
5.32378e-05
5.18987e-05
5.71787e-05
5.31447e-05
7.4252e-05
0.00020943
0.000126531
0.000172576
0.000111704
6.6466e-05
5.62155e-05
5.51918e-05
5.7517e-05
5.54251e-05
7.33506e-05
0.000201225
0.000102384
0.000186948
0.000133536
7.80009e-05
6.30274e-05
5.7603e-05
6.00211e-05
5.8887e-05
7.21605e-05
0.000190819
7.67298e-05
0.000207812
0.000172126
0.000104204
7.51141e-05
6.38036e-05
6.44107e-05
6.4085e-05
8.01791e-05
0.000181984
6.20092e-05
0.000234621
0.000213965
0.000138062
9.98276e-05
8.0217e-05
7.56543e-05
7.72436e-05
8.58954e-05
0.00017411
6.38532e-05
0.000258139
0.000268492
0.00021099
0.000136318
0.000101617
9.28348e-05
9.36581e-05
0.000127982
0.00017316
0.114393
0.0280759
0.0257834
0.0257685
0.0257665
0.0257662
0.0257686
0.0257835
0.0280767
0.114459
0.0395602
0.00410108
0.00196569
0.00193522
0.00192916
0.00193234
0.00193499
0.00196087
0.00409414
0.0396962
0.0168296
0.00245489
0.00041938
0.000411503
0.000402832
0.00040417
0.000408809
0.000418094
0.0024368
0.0169329
0.00849465
0.00158341
6.15916e-05
2.35476e-05
3.1821e-05
6.11986e-05
3.2398e-05
8.05309e-05
0.00158566
0.00859758
0.00490669
0.00125651
3.48427e-05
6.17179e-06
1.33147e-05
3.06585e-05
1.04154e-05
5.61497e-05
0.00121758
0.00497375
0.00314101
0.000935791
2.7622e-05
6.43914e-06
1.33523e-05
2.46526e-05
1.04598e-05
4.98528e-05
0.000900147
0.00318
0.0021707
0.000661275
3.98406e-05
1.19178e-05
1.8864e-05
2.09316e-05
1.21716e-05
3.9517e-05
0.000656461
0.00219603
0.00159542
0.000473413
3.24551e-05
1.09456e-05
1.55842e-05
1.69925e-05
1.59559e-05
2.73206e-05
0.000477646
0.00161469
0.00122857
0.000340124
2.79649e-05
1.02573e-05
1.51243e-05
1.19126e-05
1.23538e-05
1.75294e-05
0.00033742
0.00124495
0.000980705
0.000244148
2.40515e-05
8.22687e-06
1.08095e-05
7.75966e-06
7.99753e-06
8.50565e-06
0.000238769
0.000995028
0.000804004
0.000184266
2.00149e-05
6.95291e-06
9.46427e-06
4.6847e-06
5.19367e-06
6.39842e-06
0.000173791
0.000817575
0.000674974
0.000139862
1.38634e-05
5.12112e-06
7.33325e-06
3.07802e-06
4.3526e-06
4.56608e-06
0.000128206
0.000687274
0.00057753
0.000111892
7.78777e-06
4.18673e-06
5.97095e-06
2.25616e-06
3.50477e-06
3.01547e-06
9.85125e-05
0.000589003
0.000502306
9.60907e-05
7.50897e-06
3.31253e-06
4.15263e-06
2.30182e-06
2.59253e-06
2.29177e-06
8.08147e-05
0.000513752
0.000442761
8.65604e-05
6.07391e-06
2.45344e-06
3.57528e-06
2.31924e-06
2.56886e-06
2.33081e-06
6.96618e-05
0.000454299
0.000394651
8.44431e-05
5.34106e-06
2.34907e-06
3.03129e-06
2.32336e-06
2.54463e-06
2.24229e-06
6.17121e-05
0.000407215
0.000354895
8.25557e-05
5.72191e-06
2.28615e-06
2.61579e-06
2.42893e-06
2.53295e-06
2.17936e-06
5.5351e-05
0.000368221
0.000321398
8.29506e-05
6.26522e-06
2.28018e-06
2.48663e-06
2.39313e-06
2.6727e-06
2.41696e-06
4.99495e-05
0.000336865
0.000292662
8.52397e-05
8.30814e-06
2.45783e-06
2.36215e-06
2.571e-06
2.66237e-06
2.46794e-06
4.52907e-05
0.000309436
0.000267522
8.83167e-05
9.31116e-06
2.79269e-06
2.39244e-06
2.56629e-06
2.95606e-06
2.51421e-06
4.11574e-05
0.000287636
0.000244946
9.23827e-05
1.28524e-05
2.88438e-06
2.55481e-06
2.59755e-06
2.99988e-06
2.56031e-06
3.75772e-05
0.000267016
0.000224252
9.81206e-05
1.31385e-05
3.98673e-06
2.52941e-06
2.65042e-06
3.08653e-06
2.71324e-06
3.42052e-05
0.000251417
0.000204776
0.000103492
1.49401e-05
3.93062e-06
2.7644e-06
2.74684e-06
3.15387e-06
2.76664e-06
3.09419e-05
0.000234644
0.000185785
0.000109089
1.83498e-05
4.4761e-06
2.70152e-06
2.88088e-06
3.20982e-06
2.85224e-06
2.82901e-05
0.000223158
0.000167015
0.000121769
2.35493e-05
5.36144e-06
3.44461e-06
2.91549e-06
3.15269e-06
3.05883e-06
2.49594e-05
0.000208198
0.00014826
0.000134238
3.59754e-05
7.58955e-06
3.62145e-06
3.78482e-06
3.35198e-06
3.34427e-06
2.23976e-05
0.000198628
0.000129052
0.000144217
5.609e-05
1.20232e-05
4.7838e-06
3.8988e-06
3.76223e-06
3.82661e-06
1.93599e-05
0.000183903
0.000109116
0.000159491
8.44103e-05
2.17285e-05
7.65819e-06
4.62443e-06
4.43452e-06
4.57391e-06
1.62679e-05
0.000172159
9.04036e-05
0.000177411
0.000118599
3.77486e-05
1.3381e-05
7.04098e-06
5.81526e-06
5.86429e-06
1.52542e-05
0.000151011
7.58067e-05
0.000199077
0.000161467
7.24301e-05
2.69905e-05
1.19243e-05
8.39962e-06
8.09276e-06
1.71318e-05
0.000136691
0.114319
0.0280577
0.0257686
0.0257538
0.0257513
0.0257513
0.0257534
0.0257681
0.0280584
0.114389
0.0393752
0.00405339
0.00193604
0.00190731
0.00189896
0.00190349
0.00191047
0.00193741
0.00404705
0.0395095
0.0166791
0.0024221
0.000404561
0.000382828
0.000383524
0.000379442
0.000382614
0.000401596
0.00240173
0.0167779
0.00839459
0.00155468
6.98746e-05
4.08136e-06
1.11434e-05
3.89208e-06
6.70449e-06
7.04732e-05
0.00156348
0.00849089
0.00484225
0.00123999
4.07431e-05
4.01797e-09
2.73201e-09
5.33337e-09
8.77567e-09
2.63026e-05
0.00118812
0.00490403
0.00309813
0.000916025
2.60019e-05
3.91742e-08
1.06566e-10
2.13776e-08
2.70263e-08
1.90445e-05
0.000875297
0.00313458
0.0021395
0.000643881
2.95813e-05
1.29534e-07
3.10417e-09
1.86469e-08
5.68515e-08
1.48828e-05
0.000630317
0.00216416
0.00157307
0.000461118
1.6219e-05
9.43086e-08
6.52617e-09
1.80356e-08
7.17704e-08
1.05109e-05
0.000455835
0.00159218
0.00121242
0.000331478
1.23113e-05
5.38537e-08
5.75107e-09
1.56657e-08
7.96019e-08
5.70549e-06
0.00032443
0.0012293
0.000969131
0.000239975
8.25119e-06
5.53383e-08
1.07736e-08
1.91678e-08
5.47343e-08
4.62865e-06
0.000228674
0.000984429
0.000794915
0.000182806
5.44976e-06
5.44591e-08
1.20733e-08
1.19587e-08
3.53184e-08
3.09431e-06
0.000165703
0.000810323
0.000667784
0.000142822
3.61225e-06
4.5132e-08
1.03063e-08
7.50241e-09
2.57536e-08
1.97562e-06
0.000121681
0.000682651
0.000571792
0.000118368
3.41489e-06
4.0194e-08
1.56642e-08
6.28821e-09
2.34085e-08
1.67936e-06
9.49347e-05
0.000586339
0.000497456
0.000105326
3.29948e-06
3.64344e-08
1.91211e-08
6.59898e-09
2.1029e-08
1.60237e-06
7.96222e-05
0.000512826
0.000438693
9.79898e-05
3.57154e-06
4.55512e-08
2.05646e-08
9.54463e-09
1.90144e-08
1.38963e-06
6.95066e-05
0.000454614
0.000391081
9.34138e-05
4.32281e-06
7.03548e-08
2.32146e-08
1.13137e-08
1.93802e-08
1.31861e-06
6.23887e-05
0.00040854
0.000351784
9.22096e-05
5.14454e-06
1.14278e-07
2.44599e-08
1.62371e-08
2.45127e-08
1.26656e-06
5.64366e-05
0.000370117
0.000318717
9.28458e-05
6.0558e-06
1.74766e-07
3.02597e-08
2.15636e-08
2.54438e-08
1.1971e-06
5.16893e-05
0.000339439
0.000290273
9.33483e-05
7.54679e-06
2.5948e-07
2.99013e-08
2.38814e-08
3.35408e-08
1.1088e-06
4.66695e-05
0.000312206
0.000265418
9.5712e-05
8.80982e-06
4.15588e-07
4.88771e-08
3.01221e-08
3.68317e-08
1.04698e-06
4.25931e-05
0.000290931
0.000243081
9.73332e-05
1.12546e-05
5.90784e-07
6.36199e-08
3.37856e-08
4.13549e-08
9.42396e-07
3.8173e-05
0.000270212
0.000222794
0.000104689
1.22389e-05
8.54562e-07
7.32012e-08
4.00894e-08
4.60655e-08
8.29448e-07
3.43597e-05
0.000254953
0.000203536
0.000108761
1.43069e-05
1.16274e-06
1.72436e-07
4.01857e-08
4.03825e-08
6.95983e-07
3.05228e-05
0.000237939
0.00018539
0.000122692
1.8434e-05
1.83588e-06
1.95541e-07
7.70189e-08
5.98772e-08
5.84904e-07
2.6947e-05
0.000226499
0.000167063
0.000124225
2.27457e-05
2.70377e-06
4.42435e-07
8.47032e-08
5.55824e-08
4.73037e-07
2.30721e-05
0.000211147
0.000148902
0.000131463
3.1034e-05
4.42195e-06
5.62629e-07
1.70342e-07
9.43941e-08
3.8517e-07
1.96005e-05
0.00020116
0.000130645
0.000137741
4.89772e-05
7.29602e-06
1.28696e-06
2.06204e-07
9.50654e-08
3.06076e-07
1.5344e-05
0.000185218
0.000111927
0.000146227
7.01714e-05
1.48173e-05
2.34142e-06
5.09945e-07
2.04454e-07
2.84022e-07
1.29428e-05
0.000173476
9.33805e-05
0.000158895
9.46249e-05
2.39119e-05
5.31556e-06
9.71268e-07
2.58327e-07
3.25413e-07
9.13226e-06
0.000150075
7.47685e-05
0.000170884
0.000125336
4.35535e-05
1.09801e-05
2.8221e-06
8.54916e-07
4.0536e-07
8.0405e-06
0.00013343
0.114301
0.028057
0.0257662
0.0257506
0.0257486
0.0257491
0.0257517
0.0257666
0.0280577
0.114371
0.0393189
0.00405065
0.00193181
0.00190976
0.00190046
0.00189272
0.0018957
0.00192684
0.0040435
0.0394527
0.0166239
0.0024206
0.000404276
0.000385481
0.000380157
0.000379992
0.000377044
0.00039528
0.00240973
0.0167219
0.00835268
0.00155381
6.43319e-05
6.40371e-06
4.96647e-06
9.14836e-06
2.16491e-05
3.83794e-05
0.00154367
0.00844693
0.00481143
0.00123963
2.58625e-05
2.18836e-10
7.84049e-11
2.0312e-09
5.80334e-09
1.53821e-05
0.00122507
0.00487246
0.00307494
0.000916385
1.48814e-05
2.3941e-11
4.61241e-15
2.0007e-14
1.91447e-10
1.19328e-05
0.000906496
0.00311182
0.0021217
0.000643231
1.70096e-05
2.70728e-10
8.98041e-15
1.85402e-13
1.39978e-09
1.53842e-05
0.000634217
0.00214695
0.00155915
0.000461343
1.37975e-05
2.17897e-09
7.82047e-14
1.01473e-13
1.09476e-09
1.04582e-05
0.000452486
0.00157858
0.00120134
0.000329822
1.22975e-05
9.44217e-09
1.08235e-13
4.34916e-13
1.54842e-09
7.18174e-06
0.000324116
0.00121825
0.000960187
0.000238781
9.34212e-06
7.21876e-09
1.2375e-13
2.81066e-13
9.64618e-10
5.06706e-06
0.000230078
0.000975458
0.0007876
0.000181118
6.35402e-06
8.90014e-09
7.25388e-13
2.78653e-13
7.18941e-10
3.3841e-06
0.000166465
0.000802957
0.000661681
0.000142299
4.66561e-06
1.69538e-08
7.87824e-13
3.79921e-13
6.3514e-10
2.45152e-06
0.000120905
0.000676846
0.00056677
0.000118797
3.59344e-06
1.86195e-08
2.33322e-12
6.03738e-13
5.94828e-10
2.12877e-06
9.20599e-05
0.000581426
0.000493332
0.00010468
3.40033e-06
3.26537e-08
7.90964e-13
1.82076e-12
6.83223e-10
1.91955e-06
7.62896e-05
0.000508302
0.000435272
9.6123e-05
3.43898e-06
4.42738e-08
2.16655e-11
2.45495e-12
8.75698e-10
1.79806e-06
6.77032e-05
0.000450322
0.000388188
9.0685e-05
3.83959e-06
6.82179e-08
6.32225e-11
4.77788e-12
9.82941e-10
1.57272e-06
6.1964e-05
0.000404569
0.00034942
9.01327e-05
4.47789e-06
1.0632e-07
5.78041e-11
2.38723e-11
1.29192e-09
1.40968e-06
5.72299e-05
0.00036644
0.000316686
8.92978e-05
5.58677e-06
1.65846e-07
2.74352e-09
1.02544e-11
1.72677e-09
1.32359e-06
5.37139e-05
0.000336042
0.000288623
8.98805e-05
6.65513e-06
2.47767e-07
4.42807e-09
3.35016e-11
3.27742e-09
1.27876e-06
5.02257e-05
0.000309113
0.000264056
9.17685e-05
9.72933e-06
3.97586e-07
1.94393e-08
7.34487e-10
3.36154e-09
1.21624e-06
4.7349e-05
0.000288177
0.000242032
9.43049e-05
1.12702e-05
5.54826e-07
2.36336e-08
1.19929e-09
3.82704e-09
1.13299e-06
4.4054e-05
0.000267886
0.000221944
0.000100203
1.1577e-05
7.66488e-07
6.57831e-08
2.79932e-09
4.35893e-09
1.0449e-06
4.10147e-05
0.000253137
0.000202951
0.000105263
1.32913e-05
1.04385e-06
7.43161e-08
5.79919e-09
4.93714e-09
9.50949e-07
3.73139e-05
0.00023669
0.00018492
0.000117701
1.72924e-05
1.60319e-06
1.75515e-07
1.51173e-08
5.41266e-09
8.26724e-07
3.37253e-05
0.000225897
0.000166754
0.000121194
2.14785e-05
2.50085e-06
2.3022e-07
1.89181e-08
8.73772e-09
7.10497e-07
2.92985e-05
0.000211185
0.000148605
0.00012894
2.91809e-05
3.85727e-06
5.26375e-07
8.02426e-08
1.32798e-08
5.46082e-07
2.52263e-05
0.000202008
0.000130141
0.000135997
4.66779e-05
6.97989e-06
8.41355e-07
1.00676e-07
2.78583e-08
4.42712e-07
2.00631e-05
0.000186592
0.00011101
0.000144679
6.86024e-05
1.3836e-05
2.1575e-06
4.07051e-07
3.63732e-08
2.571e-07
1.62703e-05
0.000174877
9.14438e-05
0.000156575
9.12997e-05
2.27706e-05
4.4806e-06
7.45295e-07
8.96211e-08
2.67755e-07
1.09251e-05
0.000152347
7.14486e-05
0.000168931
0.00012304
4.04997e-05
9.96357e-06
2.5969e-06
6.61742e-07
3.34331e-07
9.6218e-06
0.000129747
0.114301
0.0280571
0.0257662
0.0257506
0.0257488
0.0257492
0.0257514
0.0257666
0.0280577
0.11437
0.0393189
0.00405073
0.00193195
0.00190935
0.00189992
0.0018918
0.00189755
0.00192654
0.00404482
0.0394524
0.016624
0.00242232
0.000403662
0.00038333
0.000376365
0.000377714
0.000378433
0.000401251
0.00240082
0.0167211
0.00835265
0.00155007
6.53226e-05
1.19932e-05
9.31424e-06
9.22724e-06
1.81506e-05
1.83689e-05
0.00156382
0.00844634
0.00481146
0.00123657
2.37648e-05
4.06551e-09
1.82067e-10
2.14214e-09
1.81612e-09
1.54926e-06
0.0011698
0.00487069
0.00307473
0.000915122
2.07302e-05
7.43104e-09
7.6813e-15
2.65989e-13
9.58525e-13
1.35163e-06
0.000862004
0.00310968
0.00212225
0.000645391
2.07268e-05
1.43648e-08
1.82719e-15
5.04429e-15
1.55314e-10
2.58776e-06
0.000622447
0.00214528
0.00155923
0.000455056
1.42301e-05
1.43498e-08
7.27082e-14
3.30001e-14
3.53507e-10
2.78534e-06
0.000452536
0.00157793
0.00120127
0.000325788
9.81463e-06
1.73633e-08
2.12189e-12
1.09934e-13
1.28633e-09
2.34426e-06
0.000324742
0.00121815
0.000960166
0.000226186
3.62712e-06
1.40868e-08
1.92148e-11
3.14638e-13
7.95001e-10
1.64717e-06
0.000229191
0.000975548
0.00078787
0.000168252
2.58947e-06
9.44791e-09
1.65642e-11
1.27337e-12
6.37954e-10
1.30541e-06
0.000165897
0.000803119
0.000661995
0.000128372
2.00137e-06
8.42135e-09
3.3875e-11
2.00659e-12
5.34474e-10
6.43506e-07
0.000119892
0.000676949
0.000566894
0.000104947
1.57834e-06
9.79792e-09
4.66926e-11
2.38499e-12
8.03527e-10
6.87445e-07
9.22403e-05
0.000581544
0.000493361
9.1776e-05
1.70938e-06
1.23731e-08
9.67692e-11
9.42082e-12
1.27222e-09
7.7545e-07
7.5734e-05
0.00050836
0.000435121
8.54185e-05
2.03696e-06
1.83616e-08
1.18457e-10
1.62643e-11
2.11696e-09
9.26427e-07
6.77781e-05
0.000450315
0.0003881
8.45053e-05
2.74226e-06
3.55628e-08
3.21001e-10
3.4159e-11
2.93553e-09
9.15707e-07
6.24183e-05
0.000404515
0.000349229
8.29941e-05
3.57064e-06
6.96532e-08
9.90645e-10
8.59185e-11
3.18629e-09
9.50096e-07
5.79829e-05
0.000366502
0.000316509
8.32109e-05
4.4995e-06
1.22562e-07
2.0098e-09
1.24849e-10
3.70368e-09
9.93584e-07
5.3031e-05
0.000336111
0.000288475
8.43326e-05
5.41828e-06
1.87352e-07
6.25722e-09
1.70685e-10
4.01477e-09
9.93386e-07
4.87927e-05
0.0003093
0.000263879
8.73788e-05
6.65977e-06
2.8771e-07
9.32233e-09
5.74712e-10
4.21622e-09
9.16449e-07
4.40686e-05
0.000288231
0.000241888
9.23806e-05
8.05355e-06
4.20173e-07
2.46297e-08
1.19782e-09
4.27627e-09
8.29296e-07
3.97388e-05
0.000267842
0.000221728
9.6701e-05
1.04147e-05
6.63318e-07
3.37116e-08
2.243e-09
4.43382e-09
7.16797e-07
3.56997e-05
0.000252773
0.000202934
0.000105496
1.2632e-05
9.89983e-07
9.02076e-08
3.32843e-09
4.61446e-09
6.11932e-07
3.16411e-05
0.000236029
0.000184532
0.000107302
1.66648e-05
1.53673e-06
1.1539e-07
1.39643e-08
5.0843e-09
5.08616e-07
2.75304e-05
0.000224651
0.000166431
0.000116647
2.06753e-05
2.46997e-06
2.90557e-07
1.84213e-08
4.59084e-09
4.10607e-07
2.42359e-05
0.000209751
0.000148268
0.000126149
2.88337e-05
4.0688e-06
4.37633e-07
6.78236e-08
1.26191e-08
3.1757e-07
1.93906e-05
0.000199572
0.000129867
0.000134702
4.67305e-05
6.86656e-06
1.08319e-06
1.02766e-07
2.09148e-08
2.30719e-07
1.49598e-05
0.000183982
0.000110646
0.000142719
6.6246e-05
1.37473e-05
2.08801e-06
4.01136e-07
3.01085e-08
1.66401e-07
1.25934e-05
0.000170497
9.11969e-05
0.000155704
9.06216e-05
2.21668e-05
4.78063e-06
7.70909e-07
1.91366e-07
1.46631e-07
8.77938e-06
0.000150713
7.1122e-05
0.000166982
0.000120212
4.02606e-05
9.59432e-06
2.51633e-06
5.16664e-07
3.00221e-07
8.09154e-06
0.000123783
0.11432
0.0280576
0.0257692
0.0257537
0.0257511
0.025751
0.0257536
0.0257686
0.0280584
0.114388
0.0393757
0.0040536
0.00193003
0.00190784
0.00190133
0.00190184
0.00190372
0.00193546
0.00404722
0.0395087
0.016679
0.00241613
0.00040478
0.000378064
0.000378208
0.000380573
0.000380635
0.000399829
0.00239976
0.016776
0.00839494
0.00156055
2.34349e-05
1.15577e-05
3.00056e-05
2.80005e-05
3.08202e-05
1.71935e-05
0.00156271
0.00848782
0.00484149
0.00120452
8.06315e-06
7.8375e-10
2.64193e-08
3.57524e-08
9.22364e-08
1.3733e-06
0.00116555
0.00490071
0.00309748
0.000890636
1.12902e-05
1.28588e-10
1.2967e-08
7.1031e-10
5.25729e-09
2.18609e-06
0.000857393
0.00313199
0.00213976
0.000631598
1.30403e-05
2.44931e-10
4.88869e-08
1.01276e-09
4.53888e-09
3.89695e-06
0.000621059
0.00216279
0.00157349
0.000453294
1.18532e-05
6.57995e-10
2.31303e-08
2.42164e-09
4.34324e-09
3.47316e-06
0.000446489
0.00159161
0.0012127
0.000327184
1.07237e-05
2.00843e-09
2.51083e-08
2.06304e-09
9.57963e-09
3.32821e-06
0.00032263
0.00122878
0.00096925
0.000237429
9.50323e-06
4.87849e-09
1.86507e-08
2.65019e-09
7.82206e-09
2.3871e-06
0.000233688
0.000984071
0.000795103
0.000179215
8.52941e-06
1.71393e-08
1.74479e-08
3.87505e-09
8.69028e-09
2.05354e-06
0.000173297
0.000809772
0.000667855
0.000140745
6.88183e-06
3.93316e-08
1.622e-08
3.67713e-09
1.09404e-08
2.3023e-06
0.000129321
0.000682526
0.000571877
0.000116721
4.59332e-06
3.22129e-08
1.72375e-08
4.38124e-09
1.40973e-08
2.12351e-06
0.000101069
0.000586563
0.000497582
0.000104456
4.54752e-06
6.58082e-08
1.69585e-08
5.96494e-09
1.75066e-08
1.73891e-06
8.37505e-05
0.000513032
0.000438803
9.66562e-05
4.40454e-06
6.67821e-08
1.82698e-08
7.85817e-09
2.23266e-08
1.70041e-06
7.36561e-05
0.000454689
0.000391173
9.23266e-05
4.06272e-06
7.8466e-08
2.32414e-08
9.33962e-09
2.68528e-08
1.59995e-06
6.75398e-05
0.000408521
0.000351886
9.21982e-05
4.35255e-06
1.05343e-07
2.5487e-08
1.75704e-08
3.21778e-08
1.51557e-06
6.21822e-05
0.000370205
0.00031877
9.25717e-05
4.98782e-06
1.51758e-07
3.2934e-08
2.06938e-08
3.46577e-08
1.42385e-06
5.71552e-05
0.000339547
0.000290405
9.36263e-05
5.94898e-06
2.05156e-07
3.64866e-08
2.56879e-08
3.86146e-08
1.33246e-06
5.23428e-05
0.000312611
0.000265499
9.53726e-05
7.3591e-06
3.20638e-07
4.70621e-08
2.82963e-08
4.16558e-08
1.1964e-06
4.69999e-05
0.000291278
0.000243252
0.000100019
8.78703e-06
4.69291e-07
4.4105e-08
3.48613e-08
4.72962e-08
1.04856e-06
4.25291e-05
0.000270939
0.000222887
0.000106107
1.15683e-05
7.4693e-07
1.05526e-07
3.4298e-08
5.04353e-08
8.80366e-07
3.73394e-05
0.000255454
0.000203736
0.000109951
1.4127e-05
1.14038e-06
1.07631e-07
5.3979e-08
5.0388e-08
7.42477e-07
3.32223e-05
0.000238786
0.000185571
0.000123981
1.87916e-05
1.85722e-06
2.24376e-07
5.19428e-08
6.64335e-08
6.24132e-07
2.9038e-05
0.000227118
0.000167206
0.000124878
2.32204e-05
2.84316e-06
2.95306e-07
8.01038e-08
7.50008e-08
5.0794e-07
2.45805e-05
0.000211964
0.000149012
0.00013189
3.19059e-05
4.5072e-06
6.65166e-07
1.04196e-07
7.56654e-08
4.10372e-07
2.08736e-05
0.000201975
0.000130667
0.000137173
4.84252e-05
7.74931e-06
1.04496e-06
2.37779e-07
1.28352e-07
3.254e-07
1.61641e-05
0.000186078
0.000111892
0.000145458
6.97599e-05
1.46783e-05
2.63947e-06
4.23176e-07
1.6025e-07
3.09085e-07
1.20997e-05
0.000173938
9.3227e-05
0.000157133
9.25831e-05
2.37092e-05
4.86118e-06
1.183e-06
3.69713e-07
3.53141e-07
7.67497e-06
0.000149306
7.47168e-05
0.000168797
0.000123408
4.22164e-05
1.10367e-05
2.644e-06
7.69952e-07
4.60155e-07
7.48612e-06
0.000136396
0.114392
0.0280757
0.0257832
0.025769
0.0257662
0.0257664
0.0257686
0.0257829
0.0280764
0.114459
0.0395639
0.00409804
0.00196532
0.00192987
0.00193125
0.00192865
0.00193583
0.00196367
0.00409185
0.0396965
0.0168316
0.00246495
0.00041939
0.000399093
0.000397984
0.000394965
0.000393508
0.000421799
0.00244467
0.0169292
0.00849158
0.00153412
4.83706e-05
3.15431e-05
6.61169e-05
5.07991e-05
5.10671e-05
3.51873e-05
0.00154575
0.00858896
0.00490587
0.00130684
1.30092e-05
4.57362e-06
3.42178e-05
2.3981e-05
2.72953e-06
2.14743e-05
0.00124797
0.00496451
0.00313974
0.000967693
1.39835e-05
4.56993e-06
2.12536e-05
1.78123e-05
1.61882e-06
2.47326e-05
0.000924367
0.00317473
0.00217014
0.000668285
2.69936e-05
4.93416e-06
2.33171e-05
1.38625e-05
2.46869e-06
2.12013e-05
0.000649201
0.00219306
0.00159471
0.000466219
2.34234e-05
6.81441e-06
1.32812e-05
1.41659e-05
2.17127e-06
1.77443e-05
0.000461805
0.00161298
0.00122824
0.000331796
2.05942e-05
5.0729e-06
1.03497e-05
1.01425e-05
2.20065e-06
1.39289e-05
0.000331258
0.00124338
0.000979625
0.000244014
1.74702e-05
3.67068e-06
6.64304e-06
9.42519e-06
1.95602e-06
8.93089e-06
0.00023729
0.000994182
0.000803642
0.000185414
1.56303e-05
3.52208e-06
4.77873e-06
7.2992e-06
2.15304e-06
9.36408e-06
0.00017339
0.000816678
0.000674495
0.000147724
1.39258e-05
2.99396e-06
3.91173e-06
6.01908e-06
2.13433e-06
7.80941e-06
0.000127029
0.000687096
0.000577466
0.000123364
1.23944e-05
2.54377e-06
3.48922e-06
4.36983e-06
2.23446e-06
6.17714e-06
9.65188e-05
0.000589234
0.000502479
0.000107262
8.83182e-06
2.4977e-06
3.2505e-06
3.83479e-06
2.36315e-06
4.48691e-06
7.82791e-05
0.000514035
0.000443074
9.60378e-05
7.91507e-06
2.53501e-06
2.93792e-06
3.5449e-06
2.53663e-06
4.15483e-06
6.9102e-05
0.000454518
0.000395113
9.41283e-05
8.436e-06
2.60291e-06
2.96725e-06
3.03228e-06
2.65805e-06
3.86047e-06
6.27034e-05
0.000407416
0.000355423
9.11633e-05
7.46e-06
2.6289e-06
2.88499e-06
3.08112e-06
2.7512e-06
3.37558e-06
5.77195e-05
0.000368514
0.000321973
9.02453e-05
8.66094e-06
2.7571e-06
2.85068e-06
2.96837e-06
2.73028e-06
3.302e-06
5.33731e-05
0.00033726
0.000293313
9.14343e-05
8.76324e-06
2.96977e-06
2.59822e-06
2.81621e-06
2.96465e-06
3.05748e-06
4.90251e-05
0.000310019
0.000268091
9.31767e-05
1.21288e-05
3.15322e-06
2.81853e-06
2.81814e-06
2.9475e-06
3.17892e-06
4.51314e-05
0.000288335
0.00024563
9.82853e-05
1.36172e-05
3.2805e-06
2.66081e-06
2.82405e-06
2.98223e-06
3.19664e-06
4.11398e-05
0.00026791
0.000224812
0.000102293
1.34727e-05
4.35017e-06
3.11532e-06
2.83347e-06
3.03157e-06
3.14437e-06
3.76338e-05
0.000252325
0.000205489
0.000113266
1.52878e-05
4.86977e-06
2.86237e-06
2.9415e-06
2.98188e-06
2.99342e-06
3.42443e-05
0.000235878
0.000186426
0.000115559
1.92138e-05
4.90526e-06
3.6023e-06
3.09616e-06
3.02024e-06
3.47948e-06
3.10874e-05
0.000224313
0.000167537
0.00012468
2.45383e-05
5.79313e-06
3.54348e-06
3.06694e-06
3.23794e-06
3.61313e-06
2.75643e-05
0.000209746
0.000148542
0.000135096
3.61594e-05
8.11068e-06
3.92375e-06
3.2638e-06
3.47841e-06
3.62647e-06
2.46375e-05
0.000200602
0.000129059
0.000144235
5.67346e-05
1.27186e-05
5.22277e-06
3.903e-06
3.74328e-06
3.83881e-06
2.03987e-05
0.000184791
0.000108589
0.000158137
8.34579e-05
2.214e-05
7.87712e-06
5.18957e-06
4.63707e-06
4.57251e-06
1.70156e-05
0.000175029
8.92533e-05
0.000176157
0.000119078
3.81054e-05
1.35742e-05
7.47208e-06
6.11699e-06
6.04505e-06
1.56366e-05
0.000152656
7.48397e-05
0.000197717
0.000161112
7.26784e-05
2.61801e-05
1.32458e-05
8.75712e-06
8.53555e-06
1.8353e-05
0.000139767
0.114669
0.0303162
0.0280772
0.0280589
0.0280582
0.0280582
0.0280589
0.0280769
0.0303153
0.114734
0.0399619
0.00626081
0.00409381
0.00404725
0.00404451
0.00404444
0.00404701
0.00409355
0.00626027
0.0400904
0.0170755
0.00408291
0.00245237
0.00241623
0.00241503
0.00241433
0.0024138
0.00244291
0.00406301
0.0171963
0.00862958
0.00267249
0.00155527
0.00154168
0.00153916
0.00153559
0.00153734
0.0015574
0.00267677
0.00875453
0.00497018
0.00187622
0.00128968
0.0012388
0.00124319
0.00123985
0.00123121
0.00122853
0.00185235
0.00505871
0.00317104
0.00142072
0.000958908
0.000917283
0.000920093
0.000917538
0.000909831
0.000913086
0.00139432
0.00322253
0.00218976
0.00112251
0.000680418
0.000643998
0.000643756
0.000642087
0.000638241
0.000647517
0.00108224
0.00221762
0.00160104
0.000844978
0.00048523
0.00046121
0.000460881
0.000459961
0.000457907
0.000460136
0.000835486
0.00162031
0.00122614
0.000685091
0.000342804
0.000330616
0.000328056
0.000327312
0.000326274
0.000334746
0.000658737
0.00124047
0.00097021
0.000546165
0.000240132
0.000236896
0.000235831
0.000235415
0.000236158
0.000242153
0.000527644
0.000985367
0.0007904
0.000438967
0.000177396