/*--------------------------------*- C++ -*----------------------------------*\
| =========                 |                                                 |
| \\      /  F ield         | OpenFOAM: The Open Source CFD Toolbox           |
|  \\    /   O peration     | Version:  4.1                                   |
|   \\  /    A nd           | Web:      www.OpenFOAM.org                      |
|    \\/     M anipulation  |                                                 |
\*---------------------------------------------------------------------------*/
FoamFile
{
    version     2.0;
    format      ascii;
    class       volScalarField;
    location    "800";
    object      nut;
}
// * * * * * * * * * * * * * * * * * * * * * * * * * * * * * * * * * * * * * //

dimensions      [0 2 -1 0 0 0 0];

internalField   nonuniform List<scalar> 
12000
(
0.00383598
0.00380261
0.00379765
0.00379642
0.00379612
0.00379613
0.00379643
0.00379763
0.00380222
0.00383557
0.00225884
0.00224454
0.00223332
0.00222809
0.0022265
0.00222651
0.00222812
0.00223344
0.00224464
0.00225916
0.00146169
0.0014673
0.00145668
0.00145017
0.00144779
0.00144781
0.00145021
0.00145677
0.00146732
0.00146194
0.00102889
0.00104333
0.00103508
0.00102892
0.00102636
0.00102637
0.00102899
0.00103507
0.00104333
0.00102936
0.000775504
0.000791931
0.000786573
0.000781501
0.000779032
0.000779083
0.000781541
0.000786448
0.000791893
0.000775989
0.000616574
0.000632555
0.000629326
0.000625205
0.000622903
0.000622974
0.000625282
0.000629228
0.000632638
0.000617063
0.000510456
0.000525557
0.000523396
0.000519721
0.000517593
0.000517655
0.000519863
0.000523426
0.000525687
0.000511127
0.000435644
0.000449423
0.000448912
0.000445757
0.000443844
0.000443933
0.000445985
0.000449047
0.000449891
0.000436654
0.000380556
0.000393225
0.000394105
0.000391531
0.000389812
0.000389896
0.000391777
0.000394304
0.000393678
0.000381939
0.000338505
0.000350138
0.000352231
0.000350208
0.000348687
0.000348809
0.000350507
0.000352574
0.000350554
0.000340258
0.000305433
0.00031624
0.00031918
0.000317533
0.000316166
0.000316225
0.000317837
0.000319648
0.000316942
0.000307633
0.000278882
0.00028921
0.000292605
0.000291299
0.000290132
0.0002902
0.000291693
0.000293276
0.000289983
0.000281538
0.00025713
0.000267135
0.000270881
0.000269816
0.00026884
0.000268965
0.000270309
0.000271755
0.000268118
0.000260316
0.000238968
0.000248767
0.000252896
0.000252027
0.000251235
0.00025141
0.000252636
0.000253988
0.000250069
0.000242787
0.000223548
0.000233307
0.000237767
0.000237073
0.000236462
0.000236706
0.000237816
0.000239127
0.000234972
0.000228146
0.000210236
0.0002201
0.000224894
0.000224393
0.000223946
0.000224268
0.000225291
0.000226537
0.000222211
0.000215769
0.000198548
0.00020867
0.000213767
0.000213483
0.000213174
0.000213564
0.00021454
0.000215818
0.000211427
0.000205285
0.000188094
0.00019863
0.000204057
0.000204014
0.000203879
0.000204378
0.00020533
0.00020657
0.000202194
0.000196288
0.000178553
0.000189707
0.00019547
0.000195679
0.00019571
0.000196278
0.000197283
0.000198622
0.000194403
0.000188684
0.000169615
0.000181583
0.000187772
0.00018832
0.000188572
0.000189328
0.000190351
0.00019169
0.000187661
0.000182084
0.000160977
0.000173974
0.000180774
0.000181691
0.000182102
0.000182979
0.00018418
0.000185767
0.000182108
0.000176666
0.000152295
0.000166637
0.000174252
0.000175708
0.000176447
0.000177637
0.000178881
0.000180528
0.000177248
0.00017191
0.000143129
0.000159132
0.000168074
0.000170136
0.000171084
0.000172444
0.000174069
0.000176166
0.000173516
0.000168323
0.000132831
0.000151166
0.000161886
0.000164964
0.000166464
0.000168261
0.000169935
0.000172209
0.000170188
0.000165151
0.000120398
0.000141729
0.000155294
0.000159711
0.000161573
0.00016371
0.00016612
0.000169147
0.00016799
0.000163342
0.000103436
0.000130175
0.0001478
0.000154447
0.000157461
0.000160155
0.000162583
0.000166121
0.000165856
0.000161832
7.80905e-05
0.000113522
0.00013827
0.000147746
0.00015196
0.000155573
0.000159278
0.000164072
0.000164821
0.000162127
6.16852e-05
9.28627e-05
0.000124232
0.000139986
0.000147014
0.000151441
0.000155131
0.000161268
0.000163947
0.000162524
6.98507e-05
8.57508e-05
0.000101888
0.000119576
0.000136534
0.00014565
0.000150905
0.000158851
0.000163853
0.000164911
8.86958e-05
0.000102277
0.000105142
0.000108951
0.000113892
0.000127331
0.000141356
0.000152499
0.000162621
0.00016847
0.0038026
0.000117306
0.000101039
0.00010095
0.000100957
0.000100957
0.00010095
0.000101038
0.000117292
0.00380314
0.0022445
3.44878e-05
1.73285e-05
1.71098e-05
1.71169e-05
1.71144e-05
1.71097e-05
1.73296e-05
3.44388e-05
0.00224766
0.00146723
3.63798e-05
1.51055e-05
1.50389e-05
1.50815e-05
1.51173e-05
1.50519e-05
1.51594e-05
3.62076e-05
0.00147172
0.00104321
3.71229e-05
1.45869e-05
1.40787e-05
1.40987e-05
1.39952e-05
1.4127e-05
1.46465e-05
3.57996e-05
0.00104962
0.000791766
3.99447e-05
1.80169e-05
1.94927e-05
1.94579e-05
1.97896e-05
1.91566e-05
1.82805e-05
3.7802e-05
0.000797647
0.000632332
4.78811e-05
2.15221e-05
2.35427e-05
2.37537e-05
2.42365e-05
2.3498e-05
2.23745e-05
4.51308e-05
0.000636737
0.000525259
6.69243e-05
2.56383e-05
2.58958e-05
2.5821e-05
2.61283e-05
2.55794e-05
2.64663e-05
6.25881e-05
0.000528383
0.000449045
6.07067e-05
2.86499e-05
2.83345e-05
2.83929e-05
2.86397e-05
2.83998e-05
2.93748e-05
5.2813e-05
0.000451804
0.00039275
8.39112e-05
2.99652e-05
2.94217e-05
2.97675e-05
3.01684e-05
3.03307e-05
3.13073e-05
4.4641e-05
0.000395353
0.000349561
7.16368e-05
2.99682e-05
2.98384e-05
3.10873e-05
3.13149e-05
3.10867e-05
3.18317e-05
5.60038e-05
0.000352143
0.000315531
6.03526e-05
3.09739e-05
2.98478e-05
3.22061e-05
3.32389e-05
3.19904e-05
3.21248e-05
7.42403e-05
0.000318584
0.000288346
5.92595e-05
3.03596e-05
2.8822e-05
3.20541e-05
3.50232e-05
3.15458e-05
3.02339e-05
6.88867e-05
0.000291726
0.000266088
6.43637e-05
2.93417e-05
2.93219e-05
3.17723e-05
3.71608e-05
3.23216e-05
2.89852e-05
6.41292e-05
0.00026989
0.000247495
6.95883e-05
3.01532e-05
3.17842e-05
3.37419e-05
4.23739e-05
3.61635e-05
3.04029e-05
6.42524e-05
0.000251833
0.000231769
7.50969e-05
3.36188e-05
3.72554e-05
3.69575e-05
4.61729e-05
4.16602e-05
3.30592e-05
6.40152e-05
0.000236701
0.000218243
8.15194e-05
3.72986e-05
4.1216e-05
4.03863e-05
4.93779e-05
4.68479e-05
3.65866e-05
6.58372e-05
0.000223864
0.000206442
8.85384e-05
4.03683e-05
4.44162e-05
4.20926e-05
4.94445e-05
5.10487e-05
3.89659e-05
6.98414e-05
0.000212828
0.000195966
9.65551e-05
4.66795e-05
4.57498e-05
4.44988e-05
4.95946e-05
5.37961e-05
4.11026e-05
7.34361e-05
0.0002034
0.000186555
0.000107387
5.17405e-05
4.50223e-05
4.4092e-05
4.82996e-05
5.48735e-05
4.23158e-05
7.71043e-05
0.000195135
0.000177885
0.000115413
5.60113e-05
4.949e-05
4.53525e-05
4.59264e-05
5.52495e-05
4.56733e-05
7.90476e-05
0.00018808
0.000169719
0.000122877
6.13507e-05
5.27257e-05
4.76856e-05
4.68695e-05
5.44886e-05
4.72492e-05
8.03169e-05
0.000181678
0.000161817
0.000129667
6.76306e-05
5.70122e-05
5.01385e-05
4.84816e-05
5.54445e-05
5.15069e-05
8.07204e-05
0.000176326
0.000153896
0.000141731
7.29127e-05
5.74224e-05
5.63573e-05
4.902e-05
5.63011e-05
5.32589e-05
8.0074e-05
0.00017112
0.000145715
0.000150731
8.26929e-05
6.12038e-05
5.57577e-05
5.62031e-05
6.08207e-05
5.64839e-05
8.02509e-05
0.000167049
0.000136694
0.00015957
9.30054e-05
6.38788e-05
5.70489e-05
5.5122e-05
6.20519e-05
5.69835e-05
7.74436e-05
0.000162493
0.000126303
0.000175173
0.0001296
7.53742e-05
6.18681e-05
6.15462e-05
6.27045e-05
6.07116e-05
7.89727e-05
0.000159278
0.000113613
0.000188567
0.000148031
8.97787e-05
7.22963e-05
6.17136e-05
6.33872e-05
6.45706e-05
7.54422e-05
0.000155105
9.8355e-05
0.000208718
0.000192425
0.00012438
8.79445e-05
7.02863e-05
6.9478e-05
6.57115e-05
9.17036e-05
0.000151472
8.84184e-05
0.000224251
0.000217353
0.000158699
0.000120055
9.21077e-05
8.09872e-05
8.31235e-05
7.5509e-05
0.000148158
8.97234e-05
0.000242748
0.000251805
0.000222669
0.000153941
0.00011469
0.000100122
9.45714e-05
0.000110616
0.000147754
0.00379764
0.000101043
8.59042e-05
8.58472e-05
8.58445e-05
8.58438e-05
8.58479e-05
8.59041e-05
0.000101023
0.00379874
0.00223328
1.73323e-05
4.9114e-06
4.85235e-06
4.81352e-06
4.82621e-06
4.83417e-06
4.89911e-06
1.7252e-05
0.00223712
0.00145664
1.52941e-05
6.11496e-07
5.39743e-07
5.6616e-07
5.84464e-07
5.848e-07
6.00067e-07
1.50331e-05
0.0014611
0.00103487
1.41122e-05
2.84153e-08
8.74033e-09
8.46718e-09
3.05124e-08
8.6058e-09
5.97165e-08
1.40186e-05
0.00104112
0.000786518
1.98698e-05
2.4458e-08
4.96761e-09
3.58905e-09
1.68493e-08
2.17929e-09
3.40375e-08
1.8187e-05
0.000791875
0.000629288
2.44773e-05
1.56512e-08
2.27969e-08
5.87274e-09
2.60164e-08
5.02634e-09
3.84602e-08
2.17509e-05
0.000633181
0.000523136
2.66284e-05
4.22144e-08
1.20079e-07
1.72469e-08
3.05018e-08
1.46118e-08
3.49902e-08
2.48301e-05
0.000526179
0.00044849
2.91198e-05
5.68249e-08
1.9806e-07
2.1174e-08
2.34026e-08
6.62546e-08
2.29955e-08
2.72802e-05
0.00045119
0.000393563
3.07547e-05
5.522e-08
1.63134e-07
2.31646e-08
1.87808e-08
4.38984e-08
1.52076e-08
2.74988e-05
0.000396177
0.000351628
3.10083e-05
4.47754e-08
1.51373e-07
1.7908e-08
1.51425e-08
3.01098e-08
6.90603e-09
2.67736e-05
0.000354187
0.000318378
3.30508e-05
4.25794e-08
1.51981e-07
2.58788e-08
1.19238e-08
2.37875e-08
7.92326e-09
2.66636e-05
0.000321054
0.000291715
3.3372e-05
3.79814e-08
1.26316e-07
3.6944e-08
1.05388e-08
3.91654e-08
7.95961e-09
2.60309e-05
0.00029436
0.000269837
3.45673e-05
3.29691e-08
1.48758e-07
5.45868e-08
1.27529e-08
5.61156e-08
7.94511e-09
2.58347e-05
0.000272504
0.000251651
3.81844e-05
3.75631e-08
1.68892e-07
5.87923e-08
2.91726e-08
6.62688e-08
1.02629e-08
2.74445e-05
0.000254502
0.000236265
4.28835e-05
3.59932e-08
1.71239e-07
9.6001e-08
6.42037e-08
1.32503e-07
2.36601e-08
3.021e-05
0.000239323
0.00022306
5.1166e-05
5.34191e-08
2.58294e-07
1.49895e-07
1.36711e-07
3.0889e-07
4.852e-08
3.2752e-05
0.000226582
0.000211526
5.7389e-05
1.21546e-07
3.91129e-07
2.35148e-07
3.03781e-07
3.32678e-07
9.98975e-08
3.43369e-05
0.000215461
0.000201296
6.41328e-05
3.37269e-07
5.54628e-07
4.30456e-07
5.6154e-07
5.9586e-07
2.60661e-07
3.4843e-05
0.000206083
0.000192087
7.22666e-05
6.35381e-07
1.09433e-06
7.16944e-07
1.10784e-06
1.06267e-06
5.24432e-07
3.46363e-05
0.000197515
0.000183651
7.99625e-05
1.41481e-06
9.85668e-07
1.22361e-06
1.65668e-06
1.89358e-06
1.10446e-06
3.38674e-05
0.00019043
0.000175732
8.53737e-05
5.22728e-06
1.13037e-06
1.86415e-06
2.27946e-06
2.68902e-06
1.18249e-06
3.3049e-05
0.000183478
0.000168144
9.52108e-05
8.17796e-06
2.24532e-06
2.42749e-06
2.72233e-06
2.81168e-06
1.9289e-06
3.1763e-05
0.000178038
0.000160677
0.000102095
1.25895e-05
2.89429e-06
2.4367e-06
3.33719e-06
3.08851e-06
2.06201e-06
3.02926e-05
0.000171996
0.000153045
0.000108343
1.7881e-05
3.80474e-06
2.65023e-06
3.24677e-06
3.2877e-06
2.69715e-06
2.93626e-05
0.000167734
0.000145108
0.000125302
2.58309e-05
5.45689e-06
3.92037e-06
3.28433e-06
3.36233e-06
3.0461e-06
2.68209e-05
0.000162014
0.000136718
0.000137388
4.40971e-05
8.1412e-06
4.1772e-06
5.37745e-06
3.87155e-06
3.83452e-06
2.56342e-05
0.000158247
0.000127555
0.000150385
7.13835e-05
1.53995e-05
5.49642e-06
4.65349e-06
4.47949e-06
4.38489e-06
2.23925e-05
0.000152268
0.000117289
0.000169427
0.000104384
2.93434e-05
1.06644e-05
5.63197e-06
5.35862e-06
5.69308e-06
1.90963e-05
0.000147326
0.00010676
0.00018721
0.00014489
5.14106e-05
1.8063e-05
8.56106e-06
7.23127e-06
6.9124e-06
1.76103e-05
0.000137981
9.77616e-05
0.000208617
0.000182993
9.9695e-05
3.86054e-05
1.61981e-05
1.07664e-05
1.01465e-05
1.61576e-05
0.000131276
0.00379642
0.000100954
8.5848e-05
8.57919e-05
8.57867e-05
8.57875e-05
8.57912e-05
8.58468e-05
0.000100933
0.00379757
0.00222805
1.71184e-05
4.8371e-06
4.7622e-06
4.75079e-06
4.75338e-06
4.77649e-06
4.84598e-06
1.70423e-05
0.00223185
0.00145011
1.51241e-05
5.68412e-07
4.82053e-07
4.67307e-07
4.77035e-07
4.90985e-07
5.76788e-07
1.48566e-05
0.0014544
0.00102876
1.39931e-05
4.72657e-08
9.49449e-10
5.36933e-09
9.17204e-10
1.57446e-09
4.72972e-08
1.40278e-05
0.00103464
0.000781337
1.97641e-05
1.57365e-08
2.37732e-14
4.14037e-13
6.49911e-14
1.28189e-13
8.43038e-09
1.80086e-05
0.000786305
0.000624977
2.41372e-05
8.98036e-09
6.92161e-12
1.75078e-14
3.10443e-12
1.10408e-12
6.87645e-09
2.15908e-05
0.000628643
0.000519363
2.59339e-05
1.50073e-08
1.72706e-11
1.21796e-11
1.30041e-11
1.06473e-11
6.23285e-09
2.41918e-05
0.000522347
0.000445337
2.84765e-05
7.5009e-09
2.10778e-11
4.5507e-11
3.31187e-11
3.0017e-11
5.21401e-09
2.67293e-05
0.000448033
0.000390967
3.05346e-05
8.15595e-09
3.4771e-11
4.30603e-11
4.44068e-11
5.32204e-11
3.1132e-09
2.78408e-05
0.00039368
0.000349547
3.2135e-05
8.86495e-09
1.5161e-10
1.47004e-10
5.66949e-11
4.98363e-11
2.93462e-09
2.76513e-05
0.000352295
0.000316574
3.49162e-05
8.03895e-09
2.16113e-10
1.7946e-10
5.26355e-11
3.81278e-11
2.27866e-09
2.75206e-05
0.000319627
0.000290157
3.69014e-05
7.39573e-09
3.48527e-10
1.76131e-10
5.49308e-11
4.49339e-11
1.78474e-09
2.65251e-05
0.000293369
0.000268493
3.9976e-05
1.49841e-08
5.06018e-10
3.51069e-10
9.47841e-11
6.2573e-11
2.59437e-09
2.68816e-05
0.000271887
0.000250433
4.6055e-05
3.02037e-08
8.11291e-10
5.01155e-10
1.73016e-10
9.93201e-11
4.64277e-09
2.93308e-05
0.000254272
0.000235177
5.31619e-05
7.27562e-08
1.74918e-09
7.11785e-10
3.69878e-10
1.48822e-10
7.97513e-09
3.2269e-05
0.000239406
0.000222048
5.9527e-05
2.69412e-07
5.70587e-09
1.35194e-09
6.37365e-10
3.82445e-10
1.59955e-08
3.48593e-05
0.000226951
0.000210597
6.71858e-05
4.19806e-07
8.37695e-09
2.19195e-09
1.85924e-09
7.94302e-10
3.27295e-08
3.63748e-05
0.000216015
0.000200455
7.48198e-05
9.9737e-07
1.97709e-08
6.42863e-09
4.78564e-09
1.27077e-09
6.41038e-08
3.72345e-05
0.000206869
0.000191301
8.07141e-05
2.82775e-06
5.59085e-08
4.64568e-09
1.02896e-08
4.24321e-09
1.17849e-07
3.64581e-05
0.000198397
0.000182928
8.68912e-05
5.43558e-06
1.84998e-07
1.32007e-08
1.26994e-08
5.75023e-09
2.1503e-07
3.56563e-05
0.000191518
0.000175061
9.12171e-05
1.02097e-05
4.14904e-07
2.25723e-08
1.7013e-08
8.95014e-09
3.31981e-07
3.37418e-05
0.000184572
0.000167597
0.000100658
1.16187e-05
7.41372e-07
2.99834e-08
2.91525e-08
1.32236e-08
4.44524e-07
3.18486e-05
0.000179285
0.00016019
0.000108238
1.45112e-05
1.12012e-06
1.39238e-07
3.61512e-08
1.23564e-08
4.92419e-07
2.97697e-05
0.0001732
0.000152883
0.000129549
1.96804e-05
1.92514e-06
1.94642e-07
9.19186e-08
2.97684e-08
5.02977e-07
2.72141e-05
0.000168985
0.000145129
0.00012703
2.439e-05
2.90966e-06
4.51139e-07
1.02288e-07
2.80675e-08
4.55954e-07
2.44022e-05
0.000163158
0.000137014
0.000132131
3.58175e-05
5.09069e-06
6.27087e-07
2.13979e-07
7.83905e-08
4.00503e-07
2.10962e-05
0.000159252
0.00012834
0.000141911
5.82178e-05
8.75735e-06
1.44115e-06
2.43078e-07
9.47775e-08
3.43904e-07
1.70933e-05
0.000152812
0.000118791
0.000153718
8.46357e-05
1.97475e-05
3.01608e-06
5.99622e-07
2.0233e-07
2.99327e-07
1.48183e-05
0.000147888
0.000108503
0.000170012
0.000113909
3.1598e-05
7.06106e-06
1.29463e-06
2.89521e-07
3.9358e-07
1.07167e-05
0.000137553
9.70899e-05
0.000183574
0.00015211
6.18288e-05
1.57765e-05
3.89956e-06
1.12046e-06
3.57861e-07
7.73003e-06
0.000129701
0.00379612
0.00010096
8.5844e-05
8.57857e-05
8.57825e-05
8.57829e-05
8.57888e-05
8.58446e-05
0.00010094
0.00379727
0.00222646
1.71251e-05
4.82323e-06
4.78749e-06
4.75093e-06
4.7305e-06
4.70058e-06
4.79975e-06
1.70429e-05
0.00223025
0.00144771
1.51593e-05
5.8444e-07
4.97363e-07
4.84055e-07
4.59093e-07
5.42019e-07
5.63984e-07
1.50056e-05
0.00145197
0.00102619
1.40121e-05
3.33485e-08
1.44389e-09
9.97795e-10
4.5669e-09
3.34377e-09
1.23134e-08
1.37204e-05
0.00103196
0.000778846
2.00626e-05
1.21822e-08
1.5302e-14
2.31667e-15
4.54858e-13
2.18724e-13
4.87519e-09
1.92819e-05
0.00078377
0.000622634
2.45825e-05
8.17431e-09
2.61207e-15
5.17509e-23
4.91482e-19
3.77014e-14
4.87274e-09
2.34176e-05
0.000626357
0.000517197
2.64597e-05
1.37355e-08
2.93067e-13
4.8602e-22
8.68366e-18
2.65669e-12
1.22966e-08
2.49141e-05
0.000520266
0.000443361
2.91073e-05
1.81124e-08
3.91173e-12
6.49033e-20
1.09997e-16
2.44074e-12
1.0571e-08
2.69536e-05
0.000446117
0.000389177
3.07509e-05
2.34607e-08
1.07869e-11
2.58807e-19
1.22041e-15
6.25959e-12
1.42129e-08
2.85937e-05
0.000391907
0.00034793
3.22222e-05
2.52117e-08
1.16658e-11
4.15111e-19
8.73138e-16
3.63856e-12
7.65655e-09
2.8921e-05
0.000350686
0.000315114
3.46659e-05
2.18962e-08
1.92802e-11
2.28667e-17
1.01119e-15
3.86025e-12
5.45235e-09
2.86708e-05
0.000318171
0.000288828
3.70303e-05
2.80458e-08
5.77556e-11
3.43059e-17
1.34449e-15
5.7971e-12
5.37966e-09
2.70268e-05
0.000292119
0.000267312
4.06641e-05
3.72271e-08
1.2045e-10
5.03075e-16
3.78936e-15
6.53214e-12
9.62845e-09
2.61932e-05
0.000270746
0.000249393
4.61254e-05
7.43029e-08
2.44438e-10
1.941e-16
6.09863e-14
1.26908e-11
1.72793e-08
2.80387e-05
0.000253148
0.000234258
5.21879e-05
1.50675e-07
7.97341e-10
1.63443e-13
7.58715e-14
4.00187e-11
3.46603e-08
3.21475e-05
0.000238274
0.000221226
5.78444e-05
3.4466e-07
2.29288e-09
1.94105e-12
3.38283e-13
6.66806e-11
5.01621e-08
3.62921e-05
0.000225845
0.000209888
6.63482e-05
1.0182e-06
8.7861e-09
2.99546e-12
3.9762e-12
1.52263e-10
7.826e-08
3.93338e-05
0.000214939
0.000199815
7.20355e-05
1.61584e-06
3.41846e-08
3.99671e-10
6.27642e-13
4.39276e-10
1.48594e-07
4.18235e-05
0.000205831
0.000190757
7.77703e-05
3.24382e-06
9.85071e-08
1.14161e-09
1.33568e-11
2.2873e-09
2.79708e-07
4.30673e-05
0.000197412
0.000182458
8.39791e-05
8.66933e-06
2.65191e-07
1.71733e-08
5.43644e-10
2.40825e-09
4.71649e-07
4.39261e-05
0.000190609
0.000174683
8.78874e-05
1.20537e-05
4.72455e-07
1.56962e-08
1.94439e-09
2.6387e-09
6.85542e-07
4.36933e-05
0.000183776
0.000167277
9.77291e-05
1.16819e-05
7.2531e-07
1.14238e-07
2.07992e-09
3.10245e-09
8.72323e-07
4.29628e-05
0.000178646
0.000159959
0.000105725
1.36701e-05
1.00902e-06
5.8077e-08
3.19476e-08
4.47175e-09
9.82706e-07
4.11848e-05
0.000172745
0.000152688
0.000124405
1.86199e-05
1.65769e-06
2.4649e-07
1.23519e-08
4.10611e-09
9.71384e-07
3.86141e-05
0.00016876
0.000144995
0.000125299
2.31869e-05
2.73407e-06
1.66498e-07
1.97276e-08
9.2014e-09
9.08685e-07
3.50197e-05
0.000163172
0.000136877
0.000130143
3.34358e-05
4.25252e-06
6.84756e-07
8.19869e-08
1.34472e-08
7.27231e-07
3.06553e-05
0.000159588
0.000128092
0.000140696
5.56154e-05
8.61795e-06
7.62362e-07
1.11054e-07
5.0024e-08
6.09077e-07
2.5201e-05
0.000153377
0.000118303
0.000151769
8.26474e-05
1.8209e-05
2.87686e-06
4.90031e-07
2.19775e-08
3.50315e-07
2.00899e-05
0.000148484
0.000107372
0.000167392
0.000108661
2.96738e-05
5.40228e-06
9.43165e-07
1.27506e-07
3.28725e-07
1.33603e-05
0.00013859
9.49098e-05
0.00018099
0.000149456
5.58681e-05
1.40007e-05
3.49157e-06
8.73964e-07
3.73458e-07
1.01844e-05
0.000127898
0.00379612
0.000100961
8.58439e-05
8.57861e-05
8.57832e-05
8.57832e-05
8.57876e-05
8.58437e-05
0.00010094
0.00379727
0.00222646
1.7122e-05
4.82432e-06
4.77858e-06
4.74083e-06
4.72505e-06
4.73187e-06
4.82517e-06
1.7047e-05
0.00223024
0.00144771
1.51863e-05
5.84336e-07
5.09064e-07
4.89001e-07
4.54513e-07
4.84567e-07
5.08342e-07
1.48738e-05
0.00145193
0.00102619
1.39807e-05
3.44625e-08
2.87342e-09
2.11229e-09
4.58173e-09
5.48941e-09
1.00526e-08
1.4198e-05
0.00103193
0.000778849
2.00668e-05
1.08761e-08
1.25519e-13
8.95968e-15
4.60328e-13
2.96903e-13
2.79451e-09
1.79687e-05
0.000783628
0.000622613
2.46158e-05
1.36815e-08
5.51811e-13
1.36451e-22
3.13301e-18
4.05607e-18
2.5699e-08
2.18645e-05
0.000626141
0.000517264
2.67271e-05
1.64565e-08
4.96142e-12
4.89666e-22
1.22725e-18
1.23946e-13
1.52185e-07
2.49422e-05
0.000520064
0.000443373
2.84957e-05
1.4957e-08
1.78047e-11
1.00841e-17
1.00194e-17
1.30718e-12
2.12077e-07
2.81589e-05
0.000446024
0.000389166
3.02192e-05
1.27716e-08
3.52328e-11
1.82035e-16
7.34734e-17
3.61963e-11
3.41387e-07
3.00259e-05
0.00039189
0.000347927
2.93461e-05
7.37141e-09
5.12753e-11
4.78531e-15
2.76076e-16
2.21025e-11
3.32611e-07
3.00417e-05
0.000350702
0.000315168
3.05267e-05
1.73418e-08
1.35868e-10
1.0675e-14
8.63162e-15
2.65679e-11
3.87217e-07
2.97061e-05
0.000318203
0.000288896
3.11113e-05
5.1584e-08
4.07564e-10
3.30109e-14
4.12123e-14
3.15356e-11
1.81014e-07
2.76485e-05
0.000292141
0.000267341
3.33318e-05
1.3455e-07
1.49904e-09
1.65605e-13
5.2073e-14
9.65335e-11
2.98584e-07
2.71294e-05
0.000270773
0.0002494
3.77078e-05
3.40987e-07
3.89317e-09
5.7251e-13
1.06225e-12
3.12756e-10
7.23668e-07
2.83751e-05
0.000253163
0.000234218
4.42582e-05
1.02744e-06
8.24068e-09
3.52298e-12
2.75929e-12
7.78852e-10
6.39326e-07
3.28511e-05
0.000238272
0.000221201
5.35018e-05
1.54456e-06
2.00526e-08
1.30966e-11
8.86095e-12
1.14149e-09
5.68478e-07
3.73399e-05
0.00022583
0.000209831
5.99698e-05
2.41884e-06
4.50959e-08
3.83594e-10
2.70285e-11
1.8245e-09
6.31796e-07
4.05227e-05
0.000214958
0.00019976
6.60009e-05
3.3222e-06
9.96408e-08
5.12769e-10
5.58712e-11
2.23875e-09
7.55025e-07
4.10162e-05
0.000205852
0.000190708
7.2481e-05
4.56891e-06
1.57689e-07
7.15139e-09
6.23724e-11
2.53723e-09
8.38306e-07
4.09466e-05
0.000197472
0.000182397
7.84599e-05
6.28936e-06
2.71707e-07
5.40809e-09
7.02621e-10
3.07087e-09
8.1606e-07
3.88901e-05
0.000190627
0.000174631
8.73678e-05
8.08205e-06
4.23e-07
3.51287e-08
1.02344e-09
3.5715e-09
7.75331e-07
3.68799e-05
0.000183761
0.000167196
9.45696e-05
1.09774e-05
7.00221e-07
2.45602e-08
5.93223e-09
3.80246e-09
6.87751e-07
3.45027e-05
0.000178517
0.000159953
0.000107962
1.34542e-05
1.09445e-06
1.43897e-07
1.79868e-09
4.43611e-09
6.07079e-07
3.18662e-05
0.000172503
0.000152528
0.000106915
1.83768e-05
1.68196e-06
9.11812e-08
2.59257e-08
5.22032e-09
5.22843e-07
2.8487e-05
0.000168294
0.000144854
0.00011967
2.25308e-05
2.83472e-06
4.17298e-07
1.22799e-08
4.85184e-09
4.3489e-07
2.66565e-05
0.000162617
0.000136722
0.000127216
3.43599e-05
5.05762e-06
3.94724e-07
1.10642e-07
1.3714e-08
3.49466e-07
2.06659e-05
0.000158622
0.000127957
0.000139426
5.64704e-05
8.09406e-06
1.58525e-06
7.69494e-08
5.87413e-08
2.53984e-07
1.64517e-05
0.000152301
0.000118109
0.000149366
7.89005e-05
1.82955e-05
2.40756e-06
6.74893e-07
1.57176e-08
2.09608e-07
1.4323e-05
0.000146613
0.000107227
0.000166554
0.000108074
2.91111e-05
7.05607e-06
7.96259e-07
4.26582e-07
1.39373e-07
1.03402e-05
0.000137845
9.46927e-05
0.000178344
0.000144465
5.47503e-05
1.27902e-05
3.80336e-06
5.42813e-07
4.591e-07
8.3092e-06
0.000124924
0.00379642
0.000100953
8.58487e-05
8.5792e-05
8.57875e-05
8.5787e-05
8.57921e-05
8.58483e-05
0.000100933
0.00379756
0.00222807
1.71213e-05
4.82603e-06
4.75635e-06
4.72966e-06
4.7378e-06
4.73232e-06
4.82886e-06
1.70392e-05
0.00223183
0.0014501
1.50616e-05
5.14888e-07
4.9536e-07
5.48021e-07
5.43826e-07
5.51016e-07
5.70107e-07
1.48578e-05
0.00145432
0.00102878
1.4259e-05
1.12759e-08
2.6821e-09
6.68107e-09
6.15316e-09
6.98154e-09
3.01412e-09
1.41413e-05
0.00103446
0.000781275
1.92209e-05
7.19895e-09
6.90936e-14
8.17109e-14
5.13991e-12
1.09761e-12
2.81766e-10
1.78057e-05
0.000786038
0.000624911
2.37462e-05
3.29499e-08
1.67453e-14
4.70029e-14
1.45612e-13
1.71118e-14
3.44617e-09
2.17553e-05
0.000628384
0.000519394
2.62387e-05
8.97273e-08
1.92104e-13
1.26566e-12
5.55376e-13
4.41843e-14
2.34502e-08
2.5072e-05
0.000522182
0.000445396
2.89646e-05
1.45723e-07
3.23729e-12
6.87164e-13
6.68655e-12
1.26107e-13
4.28703e-08
2.77853e-05
0.000447954
0.000391013
3.11921e-05
3.04618e-07
4.19982e-11
1.64935e-12
1.07544e-11
1.23719e-12
8.39436e-08
3.00893e-05
0.000393598
0.000349569
3.27373e-05
2.33106e-07
1.44493e-10
1.52232e-12
2.02852e-11
2.18116e-12
1.15591e-07
3.15814e-05
0.000352231
0.000316611
3.46477e-05
2.84757e-07
5.72594e-10
2.50427e-12
4.59174e-11
3.53889e-12
8.43784e-08
3.25535e-05
0.000319518
0.000290172
3.67301e-05
3.45152e-07
1.77258e-09
4.08845e-12
5.81095e-11
9.17037e-12
1.46788e-07
3.18134e-05
0.000293342
0.000268513
3.96446e-05
2.56584e-07
2.16748e-09
1.16808e-11
1.19925e-10
2.29309e-11
1.60607e-07
3.15885e-05
0.000271939
0.000250465
4.60116e-05
4.39985e-07
3.8152e-09
1.84598e-11
2.37385e-10
5.48466e-11
1.48978e-07
3.31199e-05
0.000254324
0.000235207
5.24253e-05
7.78943e-07
3.99466e-09
4.77206e-11
4.82129e-10
1.20107e-10
2.44974e-07
3.65077e-05
0.000239426
0.000222075
5.8913e-05
1.03843e-06
9.10273e-09
9.51819e-11
9.67661e-10
3.22927e-10
4.16931e-07
4.05643e-05
0.000226946
0.000210628
6.7787e-05
1.88976e-06
2.10304e-08
2.46054e-10
2.46198e-09
1.25201e-09
6.21175e-07
4.29957e-05
0.000216041
0.000200472
7.48965e-05
2.32238e-06
5.50583e-08
4.85043e-10
4.0022e-09
1.73212e-09
7.92189e-07
4.37836e-05
0.000206902
0.000191345
8.11764e-05
3.72965e-06
1.10243e-07
7.78272e-10
6.31842e-09
2.82452e-09
9.15872e-07
4.32683e-05
0.000198526
0.000182956
8.74402e-05
5.96171e-06
2.32482e-07
2.6926e-09
7.96215e-09
6.32749e-09
9.7703e-07
4.08395e-05
0.000191632
0.000175123
9.44872e-05
8.04544e-06
4.15156e-07
2.54254e-09
1.05116e-08
9.66261e-09
9.12735e-07
3.89683e-05
0.000184821
0.000167632
0.000105602
1.17853e-05
7.28988e-07
2.7987e-08
1.52971e-08
1.35672e-08
7.80912e-07
3.50976e-05
0.000179461
0.000160268
0.000110392
1.50942e-05
1.18855e-06
3.08517e-08
2.77889e-08
1.96557e-08
6.82912e-07
3.29178e-05
0.000173508
0.000152957
0.000132074
2.06711e-05
2.06518e-06
1.8474e-07
2.58381e-08
5.00725e-08
5.95254e-07
2.95269e-05
0.000169216
0.000145191
0.00012797
2.59141e-05
3.23863e-06
2.04252e-07
7.35712e-08
6.52572e-08
5.08398e-07
2.60386e-05
0.000163473
0.000137065
0.000132512
3.757e-05
5.29946e-06
8.41815e-07
7.02502e-08
8.35192e-08
4.16813e-07
2.25517e-05
0.000159574
0.00012835
0.000140735
5.67832e-05
9.8506e-06
9.76792e-07
3.08294e-07
1.23438e-07
3.60337e-07
1.78524e-05
0.000153166
0.000118772
0.000152355
8.34357e-05
1.90237e-05
3.71261e-06
3.88955e-07
1.88142e-07
3.33956e-07
1.25244e-05
0.000148085
0.000108414
0.000167459
0.000109627
3.12916e-05
5.99024e-06
1.84512e-06
3.85738e-07
4.17408e-07
7.88687e-06
0.0001372
9.70563e-05
0.000181176
0.000149576
5.78632e-05
1.59612e-05
3.38276e-06
9.89756e-07
5.09057e-07
7.02854e-06
0.000131134
0.00379762
0.000101042
8.59038e-05
8.58489e-05
8.58436e-05
8.58441e-05
8.58486e-05
8.59019e-05
0.000101022
0.00379874
0.00223339
1.73265e-05
4.91295e-06
4.80337e-06
4.82415e-06
4.81237e-06
4.81951e-06
4.93363e-06
1.72486e-05
0.00223713
0.00145672
1.5515e-05
6.18786e-07
5.78321e-07
5.6611e-07
5.53871e-07
5.87511e-07
5.77299e-07
1.52269e-05
0.00146094
0.00103469
1.36084e-05
1.89788e-08
7.54673e-09
4.514e-08
2.64999e-08
1.95832e-08
1.74997e-08
1.37464e-05
0.0010406
0.000786452
2.23341e-05
3.12882e-09
1.57727e-09
1.20101e-08
5.85427e-09
1.01429e-09
1.56298e-08
2.02647e-05
0.000791139
0.00062916
2.76997e-05
8.2803e-09
1.37503e-08
6.84e-09
6.68921e-09
3.69969e-09
4.98958e-08
2.4957e-05
0.000632656
0.000523068
2.97269e-05
7.04871e-08
5.3412e-08
1.10386e-08
6.3301e-09
2.54444e-08
8.56697e-08
2.77338e-05
0.000525823
0.000448389
3.13263e-05
1.13803e-07
2.10497e-07
5.68543e-09
1.22705e-08
3.87798e-08
1.37497e-07
2.98389e-05
0.00045095
0.00039351
3.31911e-05
2.56972e-07
2.31871e-07
6.54403e-09
1.89953e-08
6.78072e-08
1.84305e-07
3.23046e-05
0.000395928
0.000351434
3.54038e-05
1.5956e-07
2.13687e-07
6.45466e-09
1.50078e-08
1.3171e-07
1.98665e-07
3.19976e-05
0.000354036
0.000318307
3.76815e-05
1.61757e-07
3.25751e-07
7.55545e-09
1.28337e-08
8.69502e-08
2.47615e-07
3.20926e-05
0.000320878
0.000291611
4.04093e-05
1.5665e-07
3.28328e-07
1.11296e-08
1.64281e-08
1.03642e-07
2.41191e-07
3.03463e-05
0.000294322
0.000269822
4.4194e-05
1.59211e-07
3.78736e-07
2.24407e-08
2.05844e-08
1.31751e-07
2.76352e-07
2.88718e-05
0.000272558
0.000251694
4.82469e-05
1.66045e-07
5.48943e-07
2.57613e-08
3.52421e-08
1.87456e-07
3.24143e-07
2.92007e-05
0.000254572
0.000236348
5.18581e-05
1.68671e-07
7.13741e-07
3.9048e-08
6.62507e-08
3.45494e-07
5.56054e-07
3.26794e-05
0.000239381
0.00022319
6.14683e-05
2.17875e-07
9.42357e-07
9.08209e-08
1.06149e-07
6.87467e-07
8.85645e-07
3.60163e-05
0.000226639
0.000211684
6.70142e-05
2.23465e-07
7.55442e-07
1.84662e-07
2.3446e-07
1.07987e-06
1.13069e-06
3.85797e-05
0.000215547
0.000201477
7.29292e-05
3.83026e-07
9.8373e-07
3.68949e-07
4.45842e-07
1.45823e-06
1.60913e-06
3.98844e-05
0.000206204
0.0001923
7.90864e-05
7.18175e-07
1.31284e-06
7.05525e-07
7.76243e-07
2.15649e-06
1.89494e-06
3.97366e-05
0.000197701
0.000183847
8.52154e-05
2.93433e-06
2.11563e-06
8.35565e-07
1.28774e-06
2.53043e-06
2.58008e-06
3.90515e-05
0.000190662
0.000175977
9.24203e-05
6.55307e-06
1.84491e-06
8.85695e-07
2.18871e-06
2.85449e-06
3.08942e-06
3.74955e-05
0.000183785
0.000168354
9.95701e-05
8.62498e-06
3.8408e-06
1.39438e-06
2.0149e-06
3.25587e-06
3.30698e-06
3.61243e-05
0.000178359
0.000160957
0.000116659
1.23096e-05
5.46758e-06
1.33216e-06
2.29747e-06
2.95759e-06
3.28999e-06
3.4519e-05
0.000172448
0.000153309
0.000116494
1.83992e-05
5.01736e-06
3.02043e-06
2.64497e-06
3.01627e-06
4.10866e-06
3.29514e-05
0.000168167
0.000145335
0.000126693
2.64675e-05
6.42121e-06
2.76195e-06
3.04166e-06
3.34881e-06
4.65788e-06
3.02607e-05
0.000162615
0.000136848
0.000136448
4.28684e-05
9.22301e-06
3.79052e-06
3.10892e-06
3.93186e-06
3.95636e-06
2.86086e-05
0.000159031
0.000127558
0.000148696
7.05825e-05
1.66321e-05
5.31058e-06
4.40921e-06
3.97868e-06
4.41212e-06
2.29678e-05
0.000152635
0.000117006
0.000166215
0.000100883
3.02441e-05
1.01831e-05
6.42709e-06
5.57254e-06
5.03112e-06
1.99153e-05
0.000148549
0.000106078
0.000184678
0.000144941
5.10832e-05
1.71416e-05
9.8349e-06
7.63116e-06
7.43237e-06
1.68956e-05
0.00013873
9.7136e-05
0.000205559
0.000180495
9.92964e-05
3.56673e-05
1.97539e-05
1.13173e-05
1.09123e-05
1.84658e-05
0.000132745
0.00380221
0.000117299
0.000101027
0.000100937
0.000100944
0.000100944
0.000100937
0.000101026
0.000117274
0.00380329
0.00224459
3.4434e-05
1.72532e-05
1.70426e-05
1.7052e-05
1.70521e-05
1.70428e-05
1.72608e-05
3.43963e-05
0.0022482
0.00146724
3.64777e-05
1.52435e-05
1.50449e-05
1.50753e-05
1.5078e-05
1.50552e-05
1.52004e-05
3.6033e-05
0.00147242
0.00104306
3.51886e-05
1.34733e-05
1.35895e-05
1.36529e-05
1.36255e-05
1.36494e-05
1.39539e-05
3.4541e-05
0.00105058
0.00079159
3.86871e-05
2.0334e-05
1.96166e-05
1.97268e-05
1.96962e-05
1.97314e-05
1.96596e-05
3.58977e-05
0.000798609
0.000632289
4.77593e-05
2.4773e-05
2.40149e-05
2.38185e-05
2.38473e-05
2.42418e-05
2.43867e-05
4.31859e-05
0.000637401