/*--------------------------------*- C++ -*----------------------------------*\
| =========                 |                                                 |
| \\      /  F ield         | OpenFOAM: The Open Source CFD Toolbox           |
|  \\    /   O peration     | Version:  4.1                                   |
|   \\  /    A nd           | Web:      www.OpenFOAM.org                      |
|    \\/     M anipulation  |                                                 |
\*---------------------------------------------------------------------------*/
FoamFile
{
    version     2.0;
    format      ascii;
    class       volScalarField;
    location    "800";
    object      p;
}
// * * * * * * * * * * * * * * * * * * * * * * * * * * * * * * * * * * * * * //

dimensions      [0 2 -2 0 0 0 0];

internalField   nonuniform List<scalar> 
12000
(
0.0764222
0.076703
0.076369
0.0762488
0.0762112
0.0762097
0.0762444
0.0763621
0.0766937
0.07641
0.0758559
0.0758419
0.0757817
0.0757845
0.0757711
0.0757696
0.07578
0.0757744
0.0758321
0.0758432
0.075737
0.0755016
0.0755663
0.0756151
0.0756171
0.0756153
0.0756098
0.075558
0.0754904
0.0757226
0.075709
0.0754467
0.0755333
0.0755616
0.0755617
0.0755594
0.0755552
0.0755232
0.0754333
0.0756919
0.0756136
0.0753959
0.0754835
0.075487
0.0754845
0.0754818
0.0754789
0.0754709
0.0753792
0.0755928
0.0754923
0.0753193
0.0754034
0.0753939
0.0753936
0.0753902
0.0753836
0.0753875
0.0752985
0.0754664
0.0753928
0.0752533
0.0753289
0.0753117
0.0753143
0.0753099
0.0752984
0.0753083
0.0752268
0.0753599
0.0753199
0.0752061
0.0752713
0.0752479
0.0752514
0.0752458
0.0752307
0.0752445
0.0751723
0.0752777
0.0752627
0.075169
0.0752239
0.0751957
0.0751986
0.0751915
0.0751734
0.0751889
0.0751247
0.0752079
0.0752152
0.0751366
0.0751815
0.0751498
0.075151
0.0751417
0.0751207
0.0751357
0.0750778
0.0751432
0.0751762
0.0751082
0.0751434
0.0751088
0.0751074
0.0750952
0.0750707
0.0750835
0.0750307
0.0750824
0.0751455
0.0750845
0.0751106
0.0750729
0.0750677
0.0750514
0.075023
0.0750322
0.074983
0.0750241
0.0751227
0.0750656
0.075083
0.0750415
0.0750308
0.0750095
0.0749764
0.0749806
0.074933
0.0749658
0.075108
0.075052
0.0750605
0.0750141
0.0749962
0.0749686
0.0749297
0.0749273
0.0748791
0.0749047
0.0751026
0.0750453
0.0750439
0.0749909
0.0749638
0.0749281
0.0748815
0.0748707
0.0748199
0.0748388
0.0751083
0.0750475
0.0750344
0.0749722
0.0749333
0.0748869
0.0748305
0.0748091
0.0747537
0.074766
0.0751273
0.0750609
0.0750331
0.0749586
0.0749046
0.0748443
0.074775
0.0747405
0.074678
0.0746832
0.0751618
0.0750877
0.0750415
0.0749506
0.0748775
0.0747992
0.074713
0.0746621
0.0745895
0.0745867
0.0752143
0.0751309
0.0750612
0.0749489
0.0748516
0.0747501
0.074642
0.0745702
0.0744834
0.0744711
0.0752868
0.0751935
0.075094
0.0749543
0.0748266
0.0746955
0.0745588
0.07446
0.0743535
0.0743295
0.0753801
0.0752783
0.0751419
0.0749677
0.0748024
0.0746335
0.0744593
0.074325
0.0741913
0.074152
0.0754924
0.0753861
0.0752068
0.0749904
0.0747788
0.0745618
0.0743383
0.0741564
0.0739845
0.0739245
0.0756174
0.0755143
0.0752899
0.0750238
0.0747562
0.0744784
0.0741896
0.0739423
0.0737156
0.0736257
0.0757427
0.0756532
0.0753915
0.0750707
0.0747363
0.0743813
0.0740052
0.0736661
0.073358
0.0732223
0.0758502
0.0757845
0.0755097
0.0751361
0.0747228
0.0742696
0.0737758
0.0733042
0.0728693
0.0726577
0.0759229
0.0758869
0.0756421
0.0752292
0.0747233
0.0741439
0.0734892
0.072822
0.0721793
0.0718305
0.0759594
0.0759514
0.0757839
0.0753569
0.074747
0.0740076
0.0731324
0.0721707
0.0711689
0.070526
0.0759872
0.0760195
0.0759359
0.0755113
0.0747952
0.0738595
0.0726812
0.0712661
0.0696306
0.0682739
0.0760003
0.0760619
0.0760144
0.0756127
0.0748295
0.073693
0.0721305
0.0700098
0.0672666
0.0636329
0.0759724
0.0760114
0.0759052
0.075496
0.0746996
0.0733796
0.0713501
0.0680588
0.0636799
0.0528739
0.076704
0.0767474
0.0764177
0.0762987
0.0762587
0.0762573
0.0762944
0.0764109
0.0767384
0.0766912
0.0758429
0.0758035
0.0757688
0.075775
0.0757598
0.0757582
0.0757705
0.0757617
0.075794
0.07583
0.0755028
0.0752939
0.0753803
0.0754347
0.0754354
0.0754337
0.0754295
0.0753721
0.0752829
0.0754882
0.0754484
0.0751967
0.0752996
0.0753269
0.075325
0.0753229
0.0753206
0.0752896
0.0751833
0.075431
0.075398
0.0751792
0.0752844
0.0752809
0.0752769
0.0752742
0.0752729
0.0752719
0.0751625
0.0753768
0.0753223
0.0751407
0.0752435
0.0752251
0.0752257
0.0752224
0.0752149
0.0752274
0.0751193
0.0752958
0.0752572
0.075103
0.0751957
0.0751694
0.0751754
0.075171
0.0751561
0.075175
0.0750756
0.0752236
0.0752113
0.0750801
0.0751592
0.0751264
0.0751346
0.0751291
0.0751091
0.0751321
0.0750444
0.0751682
0.0751758
0.0750643
0.0751306
0.0750932
0.0751012
0.0750941
0.0750707
0.0750954
0.0750181
0.0751196
0.0751454
0.0750491
0.0751039
0.0750639
0.0750704
0.0750611
0.0750345
0.0750583
0.0749891
0.0750712
0.0751196
0.0750341
0.0750781
0.0750362
0.0750399
0.0750279
0.0749979
0.0750187
0.0749558
0.0750226
0.0750991
0.0750213
0.0750547
0.0750108
0.0750102
0.0749946
0.0749609
0.074977
0.0749191
0.0749733
0.0750842
0.0750119
0.0750349
0.0749882
0.0749817
0.0749613
0.0749233
0.0749335
0.0748786
0.0749216
0.0750755
0.0750069
0.0750196
0.0749685
0.0749542
0.0749276
0.0748842
0.0748873
0.0748331
0.0748655
0.0750748
0.0750075
0.075009
0.0749518
0.0749276
0.0748928
0.0748423
0.0748365
0.0747807
0.074804
0.0750842
0.0750155
0.075004
0.0749382
0.0749016
0.0748561
0.0747964
0.0747796
0.0747195
0.0747347
0.0751057
0.0750329
0.0750058
0.0749283
0.0748761
0.0748168
0.0747447
0.0747143
0.0746473
0.0746544
0.0751415
0.075062
0.0750157
0.0749225
0.0748509
0.0747737
0.0746853
0.0746379
0.0745608
0.0745589
0.0751936
0.0751054
0.0750354
0.0749215
0.0748254
0.0747252
0.0746155
0.0745466
0.0744552
0.074443
0.0752638
0.0751657
0.0750663
0.0749259
0.0747991
0.0746695
0.0745317
0.0744351
0.074324
0.0742991
0.0753528
0.0752453
0.0751101
0.0749361
0.0747714
0.0746042
0.0744294
0.0742966
0.0741579
0.0741171
0.0754594
0.0753454
0.0751682
0.0749527
0.0747416
0.0745263
0.0743027
0.0741215
0.0739441
0.0738816
0.075579
0.0754643
0.0752417
0.0749768
0.0747093
0.0744329
0.0741442
0.0738967
0.0736633
0.07357
0.0757025
0.0755964
0.0753312
0.0750102
0.0746753
0.0743209
0.0739446
0.0736037
0.0732864
0.0731461
0.0758151
0.0757299
0.0754365
0.075057
0.0746422
0.0741884
0.0736927
0.0732163
0.0727671
0.0725483
0.0759009
0.0758478
0.0755566
0.0751235
0.0746153
0.074035
0.073375
0.0726965
0.0720282
0.0716662
0.0759516
0.0759328
0.0756854
0.0752156
0.0746032
0.0738638
0.0729775
0.0719916
0.0709383
0.0702642
0.0759752
0.0759896
0.0758105
0.0753255
0.074607
0.0736749
0.0724779
0.0710178
0.0692738
0.0678336
0.0759689
0.0759975
0.0758645
0.0753947
0.0746052
0.0734692
0.0718726
0.0696712
0.0667133
0.0628242
0.0759508
0.0759186
0.0757159
0.0752578
0.0744625
0.0731533
0.0710989
0.0676615
0.0629917
0.0513886
0.076371
0.0764188
0.0761131
0.0759901
0.0759486
0.0759471
0.0759858
0.0761064
0.07641
0.0763578
0.0757837
0.0757699
0.075742
0.0757437
0.0757284
0.0757269
0.0757391
0.0757348
0.0757605
0.0757707
0.0755688
0.0753816
0.0754685
0.0755221
0.0755233
0.0755215
0.0755168
0.0754604
0.0753707
0.0755541
0.0755363
0.0753013
0.0754021
0.0754286
0.0754264
0.0754242
0.0754222
0.0753921
0.0752879
0.0755191
0.0754875
0.0752865
0.0753919
0.0753862
0.0753815
0.0753788
0.0753782
0.0753794
0.0752698
0.0754664
0.0754087
0.0752461
0.0753528
0.0753323
0.0753335
0.0753301
0.075322
0.0753368
0.0752249
0.0753822
0.075336
0.0751992
0.0752977
0.0752694
0.0752774
0.0752731
0.0752561
0.075277
0.0751719
0.0753022
0.0752805
0.0751637
0.0752492
0.0752141
0.0752252
0.0752196
0.0751968
0.0752223
0.0751279
0.0752373
0.075236
0.0751365
0.0752093
0.0751691
0.0751803
0.0751732
0.0751466
0.0751743
0.07509
0.0751801
0.0751971
0.0751115
0.0751728
0.0751297
0.0751396
0.0751304
0.0751004
0.0751273
0.0750513
0.0751244
0.0751637
0.0750879
0.0751381
0.0750932
0.0751003
0.0750885
0.0750551
0.075079
0.0750099
0.0750689
0.0751367
0.0750674
0.0751063
0.0750598
0.0750625
0.0750473
0.0750103
0.0750293
0.0749658
0.0750136
0.0751165
0.0750514
0.0750792
0.0750302
0.0750269
0.075007
0.0749659
0.0749785
0.0749189
0.0749572
0.0751036
0.075041
0.0750574
0.0750045
0.0749934
0.0749671
0.0749209
0.0749258
0.0748681
0.0748976
0.0750992
0.0750368
0.0750411
0.0749825
0.0749613
0.0749269
0.074874
0.0748696
0.0748114
0.0748326
0.0751051
0.0750401
0.0750308
0.074964
0.0749304
0.0748853
0.0748235
0.0748078
0.0747466
0.0747598
0.075123
0.0750527
0.0750274
0.0749493
0.0749001
0.0748414
0.0747677
0.0747382
0.0746712
0.074676
0.0751547
0.0750766
0.0750321
0.0749388
0.0748702
0.0747938
0.0747043
0.0746577
0.0745813
0.0745771
0.0752022
0.0751139
0.0750462
0.0749327
0.0748398
0.0747406
0.0746303
0.0745623
0.0744721
0.0744576
0.0752666
0.0751671
0.0750708
0.0749313
0.0748081
0.0746799
0.0745419
0.0744465
0.0743368
0.0743098
0.0753483
0.0752379
0.0751071
0.0749346
0.0747739
0.0746085
0.0744342
0.074303
0.0741658
0.0741228
0.0754459
0.075327
0.0751555
0.0749426
0.0747361
0.0745233
0.0743008
0.0741218
0.0739456
0.0738808
0.0755551
0.075433
0.0752168
0.0749554
0.0746934
0.0744204
0.0741334
0.0738888
0.073656
0.0735602
0.0756679
0.0755513
0.0752908
0.0749739
0.0746456
0.074296
0.0739219
0.0735845
0.0732667
0.0731229
0.0757743
0.075673
0.0753766
0.0750001
0.074594
0.0741472
0.0736544
0.0731814
0.0727292
0.0725048
0.0758633
0.0757861
0.0754725
0.0750384
0.0745427
0.0739733
0.0733175
0.0726411
0.0719636
0.0715911
0.0759269
0.0758791
0.0755762
0.0750954
0.0745022
0.0737816
0.0729017
0.071914
0.0708368
0.0701396
0.0759663
0.075946
0.0756805
0.075176
0.0744888
0.0735891
0.072403
0.0709334
0.0691301
0.0676338
0.0759893
0.075984
0.0757673
0.0752874
0.0745463
0.0734615
0.0718848
0.0696661
0.066579
0.0625321
0.0760074
0.0759847
0.0758061
0.0754258
0.0747254
0.0734853
0.0714583
0.0679959
0.0631105
0.0510687
0.076252
0.0763011
0.0759913
0.0758676
0.0758259
0.0758245
0.0758634
0.0759846
0.0762922
0.0762387
0.0757879
0.0757774
0.075745
0.0757474
0.0757323
0.0757307
0.0757429
0.0757378
0.0757679
0.0757748
0.0756191
0.0754374
0.0755235
0.0755796
0.0755811
0.0755793
0.0755744
0.0755153
0.0754265
0.0756044
0.0755665
0.0753302
0.0754303
0.0754591
0.0754566
0.0754545
0.0754527
0.0754204
0.0753169
0.0755493
0.0754933
0.0752851
0.0753884
0.0753831
0.0753776
0.0753749
0.0753751
0.0753759
0.0752685
0.0754723
0.0754021
0.0752305
0.0753351
0.0753136
0.0753141
0.0753108
0.0753034
0.0753192
0.0752094
0.0753755
0.0753225
0.0751765
0.075273
0.0752429
0.0752507
0.0752464
0.0752297
0.0752525
0.0751493
0.0752885
0.0752621
0.0751358
0.0752188
0.0751812
0.0751922
0.0751868
0.075164
0.0751922
0.0751005
0.0752182
0.0752145
0.0751056
0.0751753
0.075132
0.0751432
0.0751362
0.0751096
0.0751406
0.0750596
0.0751574
0.0751743
0.07508
0.0751379
0.0750916
0.0751014
0.0750923
0.0750624
0.0750927
0.0750202
0.0751002
0.0751407
0.0750573
0.0751041
0.0750562
0.0750633
0.0750515
0.0750182
0.0750453
0.0749796
0.0750443
0.0751142
0.0750384
0.0750742
0.0750249
0.0750276
0.0750123
0.0749754
0.0749975
0.0749372
0.0749893
0.0750951
0.0750243
0.0750492
0.0749979
0.0749943
0.0749744
0.0749335
0.0749491
0.0748921
0.0749338
0.0750836
0.0750157
0.0750295
0.0749749
0.0749633
0.0749372
0.0748913
0.0748989
0.074843
0.0748754
0.0750807
0.0750133
0.0750152
0.0749556
0.0749339
0.0748998
0.0748471
0.074845
0.0747881
0.0748117
0.0750877
0.0750183
0.0750068
0.0749397
0.0749054
0.0748608
0.0747993
0.0747854
0.074725
0.0747401
0.0751064
0.0750323
0.0750049
0.0749271
0.0748773
0.0748191
0.0747457
0.0747178
0.074651
0.0746572
0.0751384
0.075057
0.0750106
0.0749181
0.0748488
0.0747732
0.0746841
0.0746387
0.0745623
0.0745589
0.0751853
0.0750945
0.0750248
0.0749127
0.0748193
0.0747211
0.0746113
0.0745442
0.0744537
0.0744395
0.0752483
0.0751466
0.0750484
0.0749108
0.0747875
0.0746605
0.0745233
0.0744287
0.0743182
0.074291
0.0753273
0.075215
0.0750822
0.0749123
0.0747521
0.0745882
0.0744149
0.0742844
0.0741461
0.0741022
0.0754211
0.0753002
0.0751269
0.0749169
0.0747116
0.0745006
0.0742793
0.074101
0.0739233
0.0738573
0.075526
0.0754013
0.0751827
0.0749245
0.0746646
0.0743938
0.0741083
0.0738644
0.0736296
0.0735317
0.0756357
0.0755147
0.07525
0.0749357
0.0746106
0.0742639
0.0738917
0.0735548
0.073234
0.0730872
0.0757425
0.0756336
0.0753288
0.0749533
0.0745515
0.0741089
0.0736186
0.0731458
0.0726886
0.0724593
0.0758382
0.0757493
0.0754196
0.0749834
0.0744942
0.0739315
0.0732789
0.0726015
0.0719155
0.0715342
0.0759166
0.0758533
0.075524
0.0750389
0.0744568
0.0737472
0.0728723
0.0718819
0.070789
0.0700756
0.0759774
0.0759401
0.0756433
0.0751397
0.0744731
0.0735919
0.0724139
0.0709396
0.069109
0.0675819
0.0760248
0.0760078
0.0757811
0.0753266
0.0746227
0.0735659
0.0720029
0.069782
0.0666599
0.0625696
0.0760601
0.0760485
0.075935
0.0756381
0.0749948
0.0737842
0.0717735
0.068319
0.0634118
0.0513853
0.0762159
0.0762625
0.0759512
0.0758273
0.0757856
0.0757841
0.0758231
0.0759446
0.0762536
0.0762025
0.075776
0.0757637
0.0757312
0.0757338
0.0757186
0.075717
0.0757292
0.0757241
0.0757541
0.0757629
0.0756228
0.0754399
0.0755264
0.0755828
0.0755843
0.0755825
0.0755777
0.0755183
0.0754289
0.0756081
0.0755687
0.0753304
0.0754301
0.0754587
0.075456
0.0754538
0.0754524
0.0754203
0.0753171
0.0755514
0.0754935
0.0752837
0.0753863
0.0753803
0.0753743
0.0753716
0.0753723
0.0753739
0.0752671
0.0754724
0.0754053
0.0752346
0.0753397
0.0753176
0.0753177
0.0753144
0.0753074
0.0753238
0.0752135
0.0753786
0.0753297
0.075187
0.0752855
0.0752552
0.075263
0.0752587
0.075242
0.0752651
0.0751598
0.0752954
0.0752716
0.0751499
0.0752358
0.0751981
0.0752096
0.0752041
0.075181
0.0752092
0.0751147
0.0752273
0.0752251
0.0751212
0.0751942
0.0751509
0.0751628
0.0751558
0.0751286
0.0751596
0.0750755
0.0751679
0.0751855
0.0750965
0.0751578
0.0751115
0.0751221
0.0751131
0.0750824
0.0751127
0.075037
0.0751115
0.0751522
0.0750741
0.0751244
0.0750765
0.0750845
0.0750728
0.0750385
0.0750657
0.0749967
0.0750563
0.0751256
0.0750549
0.0750942
0.0750448
0.0750485
0.0750333
0.0749954
0.0750176
0.0749538
0.0750019
0.0751061
0.07504
0.0750683
0.0750168
0.0750144
0.0749945
0.0749525
0.0749683
0.0749079
0.0749465
0.0750939
0.0750303
0.0750473
0.0749924
0.074982
0.0749561
0.074909
0.074917
0.0748579
0.0748876
0.0750901
0.0750265
0.0750315
0.0749715
0.0749511
0.0749171
0.0748634
0.0748618
0.0748019
0.0748231
0.0750962
0.07503
0.0750214
0.0749538
0.0749208
0.0748765
0.074814
0.0748007
0.0747378
0.0747506
0.0751136
0.0750423
0.0750176
0.0749394
0.0748908
0.074833
0.0747588
0.0747314
0.0746626
0.0746669
0.0751442
0.075065
0.0750212
0.0749283
0.0748604
0.0747851
0.0746954
0.0746507
0.0745726
0.0745677
0.0751894
0.0751002
0.0750329
0.0749205
0.0748286
0.074731
0.0746206
0.0745543
0.0744626
0.0744471
0.0752502
0.0751496
0.0750537
0.0749161
0.0747943
0.0746679
0.0745304
0.0744366
0.0743254
0.0742972
0.0753267
0.0752149
0.0750843
0.0749146
0.0747561
0.074593
0.0744195
0.0742899
0.0741513
0.0741069
0.0754179
0.0752967
0.0751253
0.0749157
0.0747123
0.0745023
0.0742811
0.0741038
0.0739261
0.0738598
0.0755204
0.0753945
0.0751771
0.0749195
0.0746615
0.074392
0.0741068
0.0738639
0.0736294
0.0735315
0.0756288
0.0755055
0.0752403
0.0749266
0.0746034
0.0742584
0.0738868
0.0735509
0.0732304
0.0730838
0.0757365
0.0756241
0.0753159
0.0749402
0.0745407
0.0741003
0.073611
0.0731389
0.0726817
0.0724526
0.0758361
0.0757426
0.0754055
0.074968
0.0744819
0.0739223
0.0732713
0.0725942
0.0719073
0.0715255
0.0759212
0.0758531
0.0755126
0.0750257
0.0744489
0.0737447
0.0728724
0.0718819
0.0707862
0.0700705
0.0759896
0.0759483
0.0756414
0.0751392
0.0744826
0.0736107
0.0724377
0.0709635
0.0691274
0.0675949
0.0760424
0.0760231
0.0757989
0.0753591
0.0746748
0.0736344
0.0720822
0.0698648
0.0667376
0.0626284
0.0760805
0.076071
0.0759907
0.0757368
0.0751278
0.0739435
0.0719537
0.0685118
0.0636041
0.0515221
0.0762159
0.0762625
0.0759513
0.0758273
0.0757856
0.0757841
0.0758231
0.0759446
0.0762537
0.0762026
0.075776
0.0757636
0.0757312
0.0757338
0.0757186
0.075717
0.0757293
0.0757241
0.0757541
0.075763
0.0756228
0.0754398
0.0755264
0.0755828
0.0755843
0.0755825
0.0755777
0.0755183
0.0754289
0.0756081
0.0755687
0.0753304
0.0754301
0.0754587
0.075456
0.0754538
0.0754524
0.0754202
0.0753171
0.0755515
0.0754935
0.0752837
0.0753863
0.0753802
0.0753743
0.0753716
0.0753723
0.0753738
0.0752671
0.0754725
0.0754053
0.0752346
0.0753396
0.0753176
0.0753177
0.0753143
0.0753073
0.0753239
0.0752135
0.0753786
0.0753297
0.0751869
0.0752854
0.0752552
0.075263
0.0752587
0.075242
0.0752651
0.0751598
0.0752953
0.0752716
0.0751498
0.0752357
0.0751981
0.0752095
0.0752041
0.0751809
0.0752092
0.0751147
0.0752273
0.0752252
0.0751212
0.0751941
0.0751509
0.0751627
0.0751558
0.0751285
0.0751596
0.0750755
0.0751679
0.0751857
0.0750965
0.0751578
0.0751114
0.0751221
0.0751131
0.0750823
0.0751127
0.075037
0.0751115
0.0751522
0.0750741
0.0751245
0.0750764
0.0750845
0.0750728
0.0750385
0.0750656
0.0749967
0.0750564
0.0751256
0.075055
0.0750943
0.0750448
0.0750486
0.0750333
0.0749954
0.0750176
0.0749538
0.075002
0.075106
0.0750401
0.0750685
0.0750168
0.0750144
0.0749945
0.0749526
0.0749683
0.0749079
0.0749466
0.0750939
0.0750303
0.0750474
0.0749925
0.0749821
0.0749561
0.0749091
0.074917
0.0748578
0.0748877
0.0750902
0.0750266
0.0750316
0.0749716
0.0749512
0.0749172
0.0748635
0.0748619
0.0748019
0.0748232
0.0750963
0.0750301
0.0750215
0.0749539
0.074921
0.0748766
0.0748141
0.0748009
0.0747378
0.0747507
0.0751139
0.0750424
0.0750178
0.0749395
0.074891
0.0748332
0.074759
0.0747316
0.0746627
0.074667
0.0751445
0.0750652
0.0750214
0.0749285
0.0748606
0.0747854
0.0746956
0.074651
0.0745727
0.0745678
0.0751898
0.0751005
0.0750333
0.0749209
0.074829
0.0747313
0.0746209
0.0745547
0.0744628
0.0744474
0.0752507
0.0751501
0.0750542
0.0749165
0.0747948
0.0746684
0.0745308
0.0744372
0.0743258
0.0742977
0.0753275
0.0752156
0.075085
0.0749152
0.0747567
0.0745936
0.07442
0.0742906
0.0741519
0.0741075
0.075419
0.0752977
0.0751262
0.0749166
0.0747131
0.0745032
0.0742818
0.0741047
0.0739269
0.0738605
0.0755219
0.0753958
0.0751782
0.0749205
0.0746625
0.0743931
0.0741078
0.0738651
0.0736305
0.0735325
0.0756307
0.0755071
0.0752417
0.0749279
0.0746048
0.0742598
0.0738881
0.0735525
0.0732319
0.073085
0.0757386
0.0756261
0.0753176
0.0749418
0.0745424
0.0741021
0.0736127
0.073141
0.0726838
0.0724542
0.0758383
0.0757448
0.0754074
0.0749699
0.074484
0.0739247
0.0732737
0.072597
0.0719101
0.0715277
0.0759233
0.0758552
0.0755147
0.0750279
0.0744515
0.0737478
0.0728756
0.0718856
0.0707899
0.0700733
0.0759914
0.0759502
0.0756436
0.0751418
0.0744859
0.0736149
0.0724423
0.0709686
0.0691323
0.0675979
0.0760439
0.0760245
0.075801
0.0753624
0.0746796
0.0736408
0.0720897
0.0698728
0.0667446
0.062628
0.0760816
0.0760719
0.0759928
0.0757415
0.0751356
0.0739541
0.0719666
0.0685251
0.0636155
0.0515095
0.076252
0.0763011
0.0759914
0.0758677
0.075826
0.0758245
0.0758635
0.0759847
0.0762923
0.0762388
0.0757879
0.0757774
0.075745
0.0757475
0.0757323
0.0757308
0.075743
0.0757379
0.075768
0.0757749
0.075619
0.0754374
0.0755235
0.0755797
0.0755811
0.0755794
0.0755745
0.0755154
0.0754265
0.0756045
0.0755664
0.0753302
0.0754303
0.0754591
0.0754566
0.0754545
0.0754528
0.0754204
0.0753169
0.0755493
0.0754931
0.0752851
0.0753884
0.0753831
0.0753776
0.0753749
0.0753751
0.0753759
0.0752685
0.0754723
0.0754019
0.0752305
0.075335
0.0753136
0.0753141
0.0753107
0.0753034
0.0753192
0.0752094
0.0753755
0.0753224
0.0751766
0.0752729
0.0752429
0.0752507
0.0752464
0.0752297
0.0752525
0.0751494
0.0752883
0.075262
0.0751358
0.0752188
0.0751811
0.0751922
0.0751867
0.0751639
0.0751922
0.0751006
0.0752179
0.0752144
0.0751056
0.0751752
0.0751319
0.0751431
0.0751361
0.0751096
0.0751406
0.0750597
0.0751572
0.0751743
0.0750801
0.0751378
0.0750914
0.0751013
0.0750923
0.0750624
0.0750927
0.0750204
0.0751
0.0751407
0.0750574
0.075104
0.0750561
0.0750632
0.0750515
0.0750182
0.0750451
0.0749797
0.0750444
0.0751142
0.0750385
0.0750742
0.0750249
0.0750276
0.0750123
0.0749755
0.0749973
0.0749373
0.0749897
0.075095
0.0750245
0.0750493
0.074998
0.0749945
0.0749745
0.0749337
0.0749491
0.0748924
0.0749341
0.0750836
0.075016
0.0750297
0.0749752
0.0749635
0.0749374
0.0748916
0.074899
0.0748434
0.0748756
0.0750808
0.0750138
0.0750155
0.0749559
0.0749342
0.0749
0.0748476
0.0748453
0.0747885
0.074812
0.075088
0.0750189
0.0750072
0.0749401
0.0749058
0.0748611
0.0747998
0.0747858
0.0747256
0.0747404
0.0751068
0.0750331
0.0750055
0.0749277
0.0748778
0.0748196
0.0747465
0.0747183
0.0746517
0.0746577
0.0751391
0.075058
0.0750114
0.0749189
0.0748496
0.0747739
0.0746851
0.0746395
0.0745632
0.0745597
0.0751864
0.0750958
0.075026
0.0749139
0.0748204
0.0747221
0.0746126
0.0745454
0.074455
0.0744406
0.0752498
0.0751485
0.0750501
0.0749125
0.0747891
0.0746619
0.0745249
0.0744301
0.0743199
0.0742926
0.0753295
0.0752174
0.0750846
0.0749146
0.0747542
0.0745901
0.0744169
0.0742863
0.0741483
0.0741044
0.0754242
0.0753034
0.0751299
0.0749198
0.0747144
0.0745032
0.074282
0.0741036
0.0739261
0.0738601
0.0755302
0.0754053
0.0751865
0.0749282
0.0746682
0.0743972
0.0741118
0.0738677
0.0736332
0.0735354
0.0756409
0.0755196
0.0752547
0.0749404
0.0746152
0.0742684
0.0738963
0.0735593
0.0732387
0.073092
0.0757485
0.0756395
0.0753344
0.074959
0.0745574
0.0741149
0.0736247
0.0731517
0.0726948
0.0724656
0.0758447
0.0757558
0.075426
0.0749902
0.0745015
0.0739392
0.073287
0.0726095
0.0719236
0.0715424
0.075923
0.0758598
0.075531
0.0750469
0.0744659
0.0737573
0.0728832
0.0718929
0.0707997
0.070086
0.0759829
0.0759459
0.0756504
0.0751488
0.0744844
0.0736053
0.0724288
0.0709549
0.0691231
0.067594
0.0760289
0.0760122
0.075788
0.0753375
0.074638
0.073585
0.0720251
0.0698048
0.0666798
0.0625733
0.0760629
0.0760515
0.0759421
0.0756527
0.0750168
0.073813
0.071808
0.068354
0.0634409
0.0513478
0.0763709
0.0764188
0.0761133
0.0759903
0.0759488
0.0759473
0.0759861
0.0761067
0.0764103
0.076358
0.0757836
0.0757699
0.075742
0.0757438
0.0757285
0.075727
0.0757393
0.075735
0.0757606
0.0757709
0.0755687
0.0753814
0.0754685
0.0755221
0.0755233
0.0755216
0.0755169
0.0754604
0.0753707
0.0755543
0.0755359
0.0753013
0.0754021
0.0754286
0.0754263
0.0754242
0.0754222
0.0753921
0.0752879
0.075519
0.0754869
0.0752866
0.075392
0.0753862
0.0753815
0.0753787
0.0753782
0.0753794
0.0752698
0.0754663
0.0754083
0.0752461
0.0753527
0.0753322
0.0753334
0.07533
0.0753219
0.0753367
0.0752248
0.0753822
0.0753357
0.0751991
0.0752975
0.0752693
0.0752773
0.075273
0.075256
0.0752769
0.0751719
0.0753022
0.0752802
0.0751637
0.075249
0.075214
0.075225
0.0752195
0.0751967
0.0752222
0.0751281
0.0752374
0.0752357
0.0751367
0.0752091
0.0751689
0.0751801
0.0751731
0.0751464
0.0751741
0.0750901
0.0751803
0.0751971
0.0751115
0.0751723
0.0751295
0.0751394
0.0751303
0.0751002
0.075127
0.0750511
0.0751247
0.0751639
0.0750874
0.0751373
0.075093
0.0751002
0.0750885
0.075055
0.0750785
0.0750092
0.0750693
0.075137
0.0750667
0.0751057
0.0750597
0.0750626
0.0750472
0.0750102
0.075029
0.0749652
0.0750139
0.0751166
0.0750509
0.0750789
0.0750302
0.0750271
0.075007
0.0749659
0.0749786
0.0749187
0.0749571
0.0751035
0.0750405
0.0750573
0.0750047
0.0749936
0.0749673
0.0749211
0.0749263
0.0748682
0.0748974
0.0750992
0.0750365
0.0750412
0.0749827
0.0749616
0.0749272
0.0748744
0.0748702
0.0748118
0.0748325
0.0751053
0.07504
0.075031
0.0749644
0.0749308
0.0748859
0.0748241
0.0748085
0.0747472
0.0747601
0.0751235
0.0750529
0.0750279
0.07495
0.0749008
0.0748422
0.0747686
0.0747391
0.074672
0.0746766
0.0751557
0.0750771
0.0750331
0.0749399
0.0748712
0.0747949
0.0747055
0.0746589
0.0745825
0.0745782
0.0752036
0.0751151
0.0750478
0.0749344
0.0748413
0.0747423
0.074632
0.074564
0.0744739
0.0744592
0.0752688
0.0751691
0.0750733
0.0749338
0.0748103
0.0746821
0.0745443
0.0744488
0.0743392
0.0743121
0.0753518
0.075241
0.0751105
0.074938
0.074777
0.0746116
0.0744374
0.0743061
0.074169
0.074126
0.0754508
0.0753314
0.0751601
0.0749471
0.0747403
0.0745275
0.074305
0.0741258
0.0739498
0.0738852
0.0755618
0.075439
0.0752228
0.0749613
0.074699
0.074426
0.074139
0.0738942
0.0736616
0.0735659
0.0756766
0.075559
0.0752983
0.0749814
0.074653
0.0743034
0.0739294
0.0735917
0.073274
0.0731306
0.0757847
0.0756825
0.0753858
0.0750096
0.0746035
0.0741569
0.0736644
0.0731912
0.072739
0.072515
0.0758749
0.0757971
0.0754834
0.0750501
0.0745548
0.073986
0.0733308
0.0726542
0.0719768
0.0716045
0.0759387
0.0758909
0.0755887
0.0751093
0.0745174
0.0737981
0.0729194
0.0719319
0.0708547
0.0701574
0.0759769
0.0759573
0.0756938
0.075192
0.0745074
0.0736105
0.0724266
0.0709578
0.0691542
0.0676567
0.075997
0.0759927
0.0757796
0.0753048
0.0745689
0.0734893
0.0719171
0.0697002
0.0666123
0.0625565
0.0760119
0.0759899
0.0758159
0.0754441
0.0747525
0.0735213
0.0715023
0.0680431
0.0631561
0.0510848
0.0767037
0.0767476
0.0764181
0.0762992
0.0762592
0.0762578
0.076295
0.0764116
0.0767392
0.0766912
0.0758426
0.0758035
0.075769
0.0757752
0.0757599
0.0757584
0.0757707
0.0757619
0.0757943
0.0758299
0.0755025
0.0752937
0.0753802
0.0754347
0.0754355
0.0754337
0.0754296
0.0753722
0.075283
0.0754881
0.0754476
0.0751967
0.0752997
0.0753269
0.075325
0.0753229
0.0753206
0.0752897
0.0751834
0.0754309
0.0753971
0.0751791
0.0752846
0.0752809
0.0752768
0.0752741
0.0752729
0.075272
0.0751626
0.0753766
0.0753213
0.0751407
0.0752436
0.0752251
0.0752257
0.0752223
0.0752148
0.0752275
0.0751195
0.0752957
0.0752565
0.0751032
0.0751959
0.0751695
0.0751753
0.075171
0.0751562
0.0751752
0.0750761
0.0752236
0.0752109
0.0750806
0.0751593
0.0751266
0.0751347
0.0751291
0.0751092
0.0751323
0.075045
0.0751683
0.0751753
0.0750652
0.0751309
0.0750934
0.0751013
0.0750942
0.0750709
0.0750956
0.0750188
0.0751197
0.0751451
0.0750499
0.0751039
0.075064
0.0750704
0.0750612
0.0750347
0.0750582
0.0749894
0.0750716
0.07512
0.0750347
0.0750777
0.0750364
0.07504
0.075028
0.0749982
0.0750182
0.0749558
0.0750235
0.0750997
0.0750217
0.0750542
0.075011
0.0750104
0.0749947
0.0749612
0.0749766
0.0749191
0.0749739
0.0750845
0.0750123
0.0750346
0.0749885
0.0749819
0.0749615
0.0749237
0.0749335
0.0748786
0.0749217
0.0750757
0.0750073
0.0750194
0.074969
0.0749546
0.0749279
0.0748848
0.0748875
0.0748333
0.0748655
0.075075
0.0750079
0.0750091
0.0749524
0.0749282
0.0748933
0.0748431
0.0748369
0.0747811
0.0748042
0.0750846
0.075016
0.0750044
0.0749391
0.0749024
0.0748569
0.0747974
0.0747801
0.0747202
0.0747355
0.0751065
0.0750336
0.0750066
0.0749295
0.0748773
0.0748179
0.074746
0.0747152
0.0746484
0.0746557
0.0751428
0.0750631
0.075017
0.0749243
0.0748524
0.0747753
0.0746871
0.0746393
0.0745625
0.0745607
0.0751956
0.0751071
0.0750374
0.074924
0.0748276
0.0747274
0.0746179
0.0745486
0.0744575
0.0744455
0.0752668
0.0751683
0.0750694
0.0749293
0.0748022
0.0746725
0.0745349
0.0744378
0.074327
0.0743025
0.0753573
0.0752492
0.0751145
0.0749407
0.0747756
0.0746083
0.0744336
0.0743003
0.074162
0.0741216
0.075466
0.0753509
0.0751741
0.0749589
0.0747473
0.0745318
0.0743083
0.0741266
0.0739495
0.0738876
0.0755883
0.0754719
0.0752493
0.0749848
0.0747169
0.0744402
0.0741517
0.0739036
0.0736705
0.0735779
0.0757146
0.0756066
0.0753407
0.0750203
0.0746852
0.0743307
0.0739545
0.073613
0.073296
0.0731566
0.0758297
0.0757428
0.0754483
0.0750697
0.0746551
0.0742014
0.073706
0.073229
0.07278
0.0725622
0.0759172
0.0758629
0.075571
0.0751392
0.0746319
0.0740521
0.0733928
0.0727138
0.0720457
0.0716847
0.0759681
0.0759492
0.0757025
0.0752348
0.0746242
0.0738862
0.0730012
0.0720153
0.0709623
0.0702895
0.0759902
0.0760061
0.0758297
0.0753479
0.0746327
0.0737036
0.0725093
0.0710502
0.0693071
0.0678684
0.0759803
0.076011
0.0758821
0.0754178
0.0746341
0.0735039
0.0719129
0.0697147
0.0667591
0.0628718
0.0759582
0.0759273
0.0757279
0.0752763
0.0744892
0.0731892
0.0711446
0.0677144
0.0630499
0.051454
0.0764211
0.0767017
0.0763675
0.0762472
0.0762097
0.0762082
0.0762431
0.0763609
0.0766927
0.0764082
0.0758549
0.0758409
0.0757806
0.0757835
0.0757701
0.0757686
0.0757791
0.0757736
0.0758313
0.075842
0.075736
0.0755006
0.0755654
0.0756143
0.0756163
0.0756145
0.0756091
0.0755573
0.0754897
0.0757215
0.0757079
0.0754456
0.0755324
0.075561
0.0755611
0.075559
0.0755547
0.0755227
0.0754329
0.0756912
0.0756125
0.0753948
0.0754829
0.0754866
0.0754843
0.0754816
0.0754788
0.0754707
0.075379
0.0755925
0.0754914
0.0753186
0.0754031
0.0753937
0.0753936
0.0753903
0.0753837
0.0753876
0.0752987
0.0754668
0.0753923
0.0752529
0.075329
0.0753117
0.0753144
0.0753101
0.0752986
0.0753086
0.0752272
0.0753606
0.0753197
0.0752061
0.0752716
0.075248
0.0752517
0.0752461
0.0752309
0.0752449
0.0751726
0.0752785
0.0752627
0.075169
0.0752245
0.0751961
0.0751991
0.0751918
0.0751736
0.0751895
0.075125
0.0752086
0.0752153
0.0751367
0.0751822
0.0751502
0.0751515
0.0751421
0.0751209
0.0751363
0.0750784
0.075144
0.0751765
0.0751089
0.0751441
0.0751092
0.0751078
0.0750956
0.0750711
0.075084
0.0750317
0.0750831
0.0751459
0.0750854
0.0751112
0.0750732
0.0750678
0.0750519
0.0750236
0.0750326
0.0749837
0.0750246
0.075123
0.0750663
0.0750834
0.0750418
0.0750309
0.0750101
0.0749772
0.0749809
0.0749332
0.0749659
0.0751082
0.0750527
0.0750609
0.0750146
0.0749966
0.0749694
0.0749307
0.0749277
0.0748792
0.0749047
0.0751028
0.075046
0.0750444
0.0749917
0.0749646
0.074929
0.0748827
0.0748713
0.0748202
0.0748391
0.0751088
0.0750485
0.075035
0.0749734
0.0749345
0.0748882
0.074832
0.0748102
0.0747546
0.0747668
0.0751283
0.0750622
0.0750341
0.0749601
0.0749063
0.074846
0.0747769
0.0747422
0.0746796
0.0746846
0.0751636
0.0750897
0.0750431
0.0749527
0.0748796
0.0748013
0.0747155
0.0746644
0.0745918
0.0745887
0.075217
0.0751337
0.0750635
0.0749516
0.0748544
0.0747528
0.0746452
0.0745733
0.0744865
0.0744739
0.0752908
0.0751974
0.0750973
0.0749579
0.0748304
0.0746991
0.0745628
0.074464
0.0743576
0.0743333
0.075386
0.0752838
0.0751466
0.0749726
0.0748073
0.0746382
0.0744644
0.0743302
0.0741966
0.074157
0.0755007
0.0753939
0.0752134
0.074997
0.0747853
0.0745682
0.0743449
0.0741632
0.0739914
0.0739311
0.0756286
0.0755249
0.0752989
0.0750325
0.0747649
0.0744868
0.0741983
0.0739513
0.0737248
0.0736345
0.0757567
0.0756668
0.0754035
0.0750821
0.0747477
0.0743926
0.0740167
0.0736781
0.0733701
0.073234
0.0758663
0.0758007
0.0755249
0.0751509