/*--------------------------------*- C++ -*----------------------------------*\
| =========                 |                                                 |
| \\      /  F ield         | OpenFOAM: The Open Source CFD Toolbox           |
|  \\    /   O peration     | Version:  4.1                                   |
|   \\  /    A nd           | Web:      www.OpenFOAM.org                      |
|    \\/     M anipulation  |                                                 |
\*---------------------------------------------------------------------------*/
FoamFile
{
    version     2.0;
    format      ascii;
    class       surfaceScalarField;
    location    "800";
    object      phi;
}
// * * * * * * * * * * * * * * * * * * * * * * * * * * * * * * * * * * * * * //

dimensions      [0 3 -1 0 0 0 0];

internalField   nonuniform List<scalar> 
33700
(
4.94516e-05
0.000901192
4.93959e-05
2.30148e-05
0.000971806
5.46746e-05
8.38811e-06
0.000957833
5.68378e-05
3.12685e-06
0.000948615
5.66912e-05
8.12604e-08
0.000946159
5.69317e-05
-2.97069e-06
0.000946166
5.69316e-05
-8.24711e-06
0.000948632
5.66903e-05
-2.28904e-05
0.000957851
5.68318e-05
-4.93435e-05
0.000971836
5.46519e-05
0.00090124
4.94372e-05
3.09921e-05
0.000839389
3.09089e-05
2.32687e-05
0.000942934
3.67017e-05
1.33291e-05
0.000929294
3.85888e-05
6.10302e-06
0.000917606
3.83466e-05
1.97142e-07
0.000913378
3.87988e-05
-5.71935e-06
0.000913396
3.88007e-05
-1.29641e-05
0.00091765
3.83364e-05
-2.28802e-05
0.000929327
3.85382e-05
-3.05636e-05
0.000942977
3.66263e-05
0.000839733
3.09839e-05
1.59821e-05
0.000807699
1.58171e-05
1.62762e-05
0.000922474
2.02809e-05
1.16389e-05
0.000912681
2.13686e-05
6.017e-06
0.000901964
2.13828e-05
3.5095e-07
0.00089722
2.19458e-05
-5.33152e-06
0.000897259
2.19417e-05
-1.10191e-05
0.000902076
2.13763e-05
-1.56765e-05
0.000912775
2.13148e-05
-1.54069e-05
0.000922592
2.02052e-05
0.000808481
1.58917e-05
8.56767e-06
0.000790921
8.31459e-06
1.156e-05
0.000909102
1.04861e-05
9.46828e-06
0.000904186
1.06955e-05
5.18326e-06
0.000894892
1.14668e-05
5.50435e-07
0.000889809
1.21539e-05
-4.13897e-06
0.000889906
1.21508e-05
-8.52513e-06
0.000895104
1.14631e-05
-1.07093e-05
0.000904395
1.06594e-05
-7.85885e-06
0.000909387
1.04385e-05
0.000792329
8.34256e-06
5.15681e-06
0.000781084
4.77194e-06
8.75731e-06
0.000899884
5.70852e-06
8.10777e-06
0.000899907
5.01895e-06
4.66486e-06
0.00089193
6.49481e-06
8.04346e-07
0.000886536
7.22269e-06
-3.14725e-06
0.000886721
7.2235e-06
-6.73943e-06
0.000892279
6.5019e-06
-7.58613e-06
0.000900303
5.01768e-06
-4.3097e-06
0.000900396
5.79253e-06
0.000783378
4.69025e-06
4.12095e-06
0.000773536
3.50542e-06
6.81682e-06
0.000893124
4.13576e-06
7.11733e-06
0.000897231
2.44788e-06
4.37077e-06
0.000890311
4.436e-06
1.11553e-06
0.000884812
5.04777e-06
-2.22583e-06
0.000885085
5.04479e-06
-5.2206e-06
0.000890869
4.46893e-06
-5.28416e-06
0.000897922
2.51362e-06
-3.03334e-06
0.000893885
4.32778e-06
0.00077703
3.36415e-06
3.9225e-06
0.000766687
2.98905e-06
6.15948e-06
0.000887267
3.67526e-06
6.56084e-06
0.000895223
1.66301e-06
4.25076e-06
0.000888798
3.8771e-06
1.52346e-06
0.000883365
4.22599e-06
-1.30071e-06
0.000883731
4.22638e-06
-3.96971e-06
0.000889639
3.94861e-06
-4.14475e-06
0.000896327
1.82675e-06
-2.46113e-06
0.000888214
4.04772e-06
0.000771711
2.906e-06
4.11836e-06
0.000759824
2.79527e-06
6.00357e-06
0.000881479
3.94733e-06
6.40912e-06
0.000893137
1.7252e-06
4.37058e-06
0.00088686
4.01849e-06
2.06882e-06
0.000881661
4.04334e-06
-3.63232e-07
0.000882155
4.04279e-06
-2.93536e-06
0.00088811
4.14181e-06
-3.65386e-06
0.000894994
2.09919e-06
-1.87426e-06
0.00088228
4.21102e-06
0.000767293
2.59216e-06
4.59108e-06
0.000752497
2.77811e-06
6.16858e-06
0.000875558
4.37837e-06
6.64478e-06
0.000890805
1.89188e-06
4.77835e-06
0.000884389
4.37144e-06
2.79091e-06
0.000879615
4.06422e-06
6.3973e-07
0.000880281
4.05333e-06
-1.89161e-06
0.000886192
4.48252e-06
-2.76369e-06
0.000893639
2.27193e-06
-1.509e-06
0.000876389
4.69099e-06
0.000763201
2.63078e-06
5.03053e-06
0.000744925
2.57695e-06
6.78039e-06
0.000869125
4.71377e-06
7.21948e-06
0.000888177
2.22163e-06
5.47865e-06
0.000881466
4.69496e-06
3.73246e-06
0.000877333
4.05453e-06
1.76996e-06
0.000878261
4.0078e-06
-7.66777e-07
0.000884028
4.73127e-06
-1.54741e-06
0.000892293
2.17029e-06
-1.13185e-06
0.00087096
5.0674e-06
0.000759323
2.79388e-06
5.725e-06
0.000736784
2.45011e-06
7.47522e-06
0.000862341
5.06656e-06
8.13021e-06
0.000885178
2.37667e-06
6.5078e-06
0.000878211
4.90898e-06
4.96754e-06
0.000874924
3.97797e-06
3.10744e-06
0.000876256
3.89196e-06
4.727e-07
0.000881783
4.91214e-06
-3.403e-07
0.000891007
2.14267e-06
-5.15787e-07
0.000865892
5.29744e-06
0.00075601
2.84642e-06
6.72583e-06
0.000727711
2.38397e-06
8.35841e-06
0.000855446
5.29797e-06
9.45034e-06
0.000881851
2.27181e-06
7.93484e-06
0.000874793
4.96926e-06
6.57095e-06
0.000872504
3.81701e-06
4.76175e-06
0.000874402
3.69359e-06
1.94185e-06
0.00087965
4.98817e-06
1.03667e-06
0.000889923
2.03554e-06
2.14331e-07
0.000861302
5.46887e-06
0.000753347
2.92755e-06
8.02866e-06
0.000717428
2.2963e-06
9.62584e-06
0.000848523
5.36678e-06
1.12387e-05
0.000878215
2.06652e-06
9.86129e-06
0.000871308
4.90492e-06
8.65554e-06
0.000870141
3.60797e-06
6.86057e-06
0.000872788
3.44594e-06
3.77014e-06
0.000877818
4.96374e-06
2.70105e-06
0.000889222
1.8196e-06
1.05787e-06
0.000857462
5.54334e-06
0.000751383
3.07386e-06
9.72862e-06
0.000705544
2.20441e-06
1.13946e-05
0.000841582
5.32392e-06
1.36087e-05
0.000874204
1.84684e-06
1.24324e-05
0.00086776
4.77396e-06
1.13745e-05
0.000867845
3.40038e-06
9.55307e-06
0.000871468
3.18577e-06
6.10385e-06
0.000876429
4.8852e-06
4.73878e-06
0.000889056
1.5858e-06
2.09446e-06
0.000854657
5.51234e-06
0.000750294
3.23675e-06
1.19351e-05
0.000691556
2.11048e-06
1.38563e-05
0.000834502
5.21363e-06
1.67484e-05
0.000869712
1.65606e-06
1.58405e-05
0.000864116
4.60874e-06
1.49165e-05
0.000865601
3.22259e-06
1.30271e-05
0.000870466
2.94309e-06
9.12624e-06
0.000875608
4.77484e-06
7.29181e-06
0.000889586
1.36242e-06
3.38096e-06
0.000853197
5.43768e-06
0.00075035
3.38033e-06
1.47922e-05
0.000674789
2.03847e-06
1.72684e-05
0.000827007
5.08001e-06
2.09069e-05
0.000864589
1.54713e-06
2.03453e-05
0.000860286
4.45438e-06
1.95349e-05
0.000863365
3.10813e-06
1.75139e-05
0.000869797
2.74717e-06
1.30375e-05
0.000875479
4.66343e-06
1.04889e-05
0.000891003
1.19482e-06
5.00476e-06
0.000853387
5.36317e-06
0.000751891
3.51955e-06
1.84808e-05
0.000654345
2.03495e-06
2.19435e-05
0.000818627
4.98411e-06
2.64018e-05
0.00085863
1.56843e-06
2.62725e-05
0.000856132
4.35207e-06
2.55532e-05
0.000861058
3.09407e-06
2.33081e-05
0.000869471
2.6356e-06
1.80871e-05
0.000876174
4.58988e-06
1.45258e-05
0.000893505
1.12526e-06
7.10016e-06
0.000855574
5.31151e-06
0.000755318
3.73091e-06
2.32071e-05
0.000629031
2.18405e-06
2.82657e-05
0.000808629
5.01053e-06
3.36394e-05
0.000851559
1.76997e-06
3.40326e-05
0.000851468
4.34469e-06
3.33837e-05
0.000858561
3.21792e-06
3.07939e-05
0.00086948
2.64968e-06
2.46134e-05
0.000877827
4.59542e-06
1.96714e-05
0.000897324
1.19282e-06
9.82875e-06
0.000860162
5.32932e-06
0.00076113
4.07548e-06
2.91706e-05
0.000597343
2.60102e-06
3.67173e-05
0.000795888
5.26944e-06
4.31516e-05
0.000842977
2.22229e-06
4.41416e-05
0.000846047
4.50809e-06
4.35453e-05
0.000855699
3.53455e-06
4.04828e-05
0.000869773
2.84314e-06
3.30786e-05
0.00088057
4.73385e-06
2.62776e-05
0.000902753
1.44427e-06
1.33969e-05
0.000867648
5.47277e-06
0.000769973
4.6145e-06
3.65371e-05
0.000557452
3.44257e-06
4.78787e-05
0.000778701
5.92135e-06
5.55818e-05
0.000832309
3.04258e-06
5.72567e-05
0.000839522
4.93009e-06
5.66978e-05
0.000852217
4.1205e-06
5.30261e-05
0.000870232
3.29052e-06
4.40865e-05
0.000884516
5.0695e-06
3.4831e-05
0.000910137
1.94781e-06
1.80849e-05
0.000878651
5.82352e-06
0.000782685
5.43463e-06
4.53605e-05
0.000507249
4.93586e-06
6.23416e-05
0.00075462
7.17846e-06
7.16965e-05
0.00081867
4.36398e-06
7.41818e-05
0.000831379
5.74029e-06
7.36827e-05
0.000847717
5.08259e-06
6.92848e-05
0.000870604
4.10743e-06
5.84534e-05
0.00088972
5.70683e-06
4.60091e-05
0.000919862
2.79848e-06
2.4297e-05
0.000893961
6.48579e-06
0.000800387
6.65743e-06
5.54374e-05
0.000444576
7.33282e-06
8.05648e-05
0.000720274
9.29699e-06
9.23557e-05
0.000800564
6.39458e-06
9.58759e-05
0.000820827
7.11509e-06
9.55395e-05
0.000841566
6.57231e-06
9.04041e-05
0.000870384
5.43949e-06
7.73175e-05
0.000896095
6.79376e-06
6.07794e-05
0.000932351
4.13045e-06
3.26159e-05
0.000914592
7.6168e-06
0.000824614
8.45297e-06
6.60837e-05
0.000367809
1.07845e-05
0.000102537
0.000671368
1.25282e-05
0.000118391
0.000775395
9.39298e-06
0.00012345
0.000806544
9.30746e-06
0.000123592
0.000832727
8.78379e-06
0.000117891
0.000868657
7.51554e-06
0.000102283
0.000903243
8.54488e-06
8.05813e-05
0.000947997
6.13906e-06
4.39518e-05
0.000941874
9.43355e-06
0.000857565
1.10661e-05
7.58034e-05
0.000276967
1.51456e-05
0.000127198
0.000603095
1.69529e-05
0.000150207
0.000738817
1.36448e-05
0.000158139
0.000786049
1.26476e-05
0.000159479
0.000819488
1.19868e-05
0.000153762
0.000863864
1.06e-05
0.000135669
0.000910177
1.1249e-05
0.000107619
0.000967025
9.10883e-06
5.97258e-05
0.000977602
1.22562e-05
0.000902514
1.48445e-05
8.19583e-05
0.000175441
1.9682e-05
0.000151507
0.000511397
2.22248e-05
0.000186972
0.000683999
1.94265e-05
0.000201045
0.000754471
1.75862e-05
0.00020521
0.000798845
1.65684e-05
0.000200717
0.000853414
1.50365e-05
0.000180855
0.000914858
1.52757e-05
0.000145452
0.000989093
1.34282e-05
8.25208e-05
0.00102409
1.65384e-05
0.000964791
2.03131e-05
7.99438e-05
7.32726e-05
2.23721e-05
0.000169158
0.000395142
2.71168e-05
0.00022545
0.0006009
2.68804e-05
0.000252522
0.000702517
2.49621e-05
0.000263294
0.000764985
2.31795e-05
0.000262575
0.000832991
2.12405e-05
0.000242899
0.000913565
2.10682e-05
0.000199885
0.00101262
1.95814e-05
0.000116567
0.00108459
2.2908e-05
0.0010532
2.8235e-05
6.16766e-05
-9.31645e-06
2.11172e-05
0.000170387
0.000257264
2.92588e-05
0.000258454
0.000477453
3.54512e-05
0.000310081
0.000615179
3.57882e-05
0.000335566
0.000706592
3.29991e-05
0.000344016
0.000794717
2.99228e-05
0.000329159
0.000899396
2.91321e-05
0.00028091
0.00103281
2.8154e-05
0.000172604
0.00116066
3.23489e-05
0.00118596
3.99052e-05
1.7857e-05
-5.21643e-05
2.52736e-05
0.000145895
9.48637e-05
3.45037e-05
0.000274887
0.00030169
4.68662e-05
0.00036734
0.00047216
5.06562e-05
0.000423091
0.000603781
4.71582e-05
0.000451809
0.000724098
4.20129e-05
0.000451101
0.000860336
3.98717e-05
0.000404615
0.00104001
3.94054e-05
0.000268115
0.00125167
4.55723e-05
0.0013971
5.70369e-05
7.361e-07
-7.84241e-05
2.59153e-05
0.000106204
-5.53689e-05
4.50177e-05
0.000256414
8.59626e-05
6.56749e-05
0.000396698
0.000257978
7.40303e-05
0.000508316
0.000423119
6.9183e-05
0.000584952
0.000587575
6.00271e-05
0.000624651
0.000766057
5.47334e-05
0.000596021
0.00101482
5.39314e-05
0.000475063
0.00130856
6.41912e-05
0.00178965
8.25908e-05
7.31494e-05
5.87301e-07
-0.000151804
0.000173311
2.15636e-05
-0.000176823
0.000282766
5.86634e-05
-8.19191e-05
0.000411851
8.43605e-05
4.47545e-05
0.000564288
9.00209e-05
0.000180852
0.000715568
8.20377e-05
0.000354447
0.00085278
7.18687e-05
0.000557148
0.000903367
6.87337e-05
0.000895665
0.000889031
7.95655e-05
0.00124346
0.000115586
0.00256315
5.47189e-05
0.000971727
2.29505e-05
2.08513e-05
0.00106774
2.08027e-05
6.4968e-06
0.00104981
2.13871e-05
2.26833e-06
0.00103939
2.15325e-05
5.87957e-08
0.00103748
2.16617e-05
-2.15765e-06
0.00103749
2.16611e-05
-6.40506e-06
0.00103941
2.153e-05
-2.08104e-05
0.00104986
2.13804e-05
-5.48777e-05
0.00106792
2.08094e-05
0.000971571
2.29946e-05
3.67437e-05
0.000942774
2.31296e-05
2.35315e-05
0.00109425
2.34304e-05
1.31317e-05
0.00107572
2.3115e-05
5.80138e-06
0.00106212
2.29875e-05
1.662e-07
0.0010588
2.31575e-05
-5.48163e-06
0.00105882
2.31595e-05
-1.28468e-05
0.00106217
2.29768e-05
-2.32728e-05
0.00107578
2.30819e-05
-3.63786e-05
0.00109423
2.34522e-05
0.00094301
2.31871e-05
2.0423e-05
0.000922173
1.60213e-05
1.88578e-05
0.00109749
1.86363e-05
1.19366e-05
0.00108646
1.75907e-05
5.69648e-06
0.00107266
1.71276e-05
3.56981e-07
0.00106884
1.72913e-05
-5.00656e-06
0.00106889
1.72764e-05
-1.13381e-05
0.00107281
1.71189e-05
-1.84282e-05
0.00108668
1.75469e-05
-2.01431e-05
0.00109753
1.86644e-05
0.00092273
1.60578e-05
1.07265e-05
0.000908576
1.12277e-05
1.52657e-05
0.00108863
1.48529e-05
1.01638e-05
0.00108837
1.39449e-05
4.87999e-06
0.0010759
1.35651e-05
5.56128e-07
0.00107161
1.37587e-05
-3.79893e-06
0.00107169
1.37653e-05
-9.22042e-06
0.0010762
1.35478e-05
-1.45672e-05
0.00108884
1.3908e-05
-1.02979e-05
0.00108885
1.49062e-05
0.000909617
1.11951e-05
6.14059e-06
0.000899
8.26839e-06
1.27194e-05
0.00107571
1.21125e-05
9.0837e-06
0.00108605
1.10414e-05
4.53281e-06
0.00107585
1.11678e-05
7.92394e-07
0.00107122
1.14281e-05
-2.98792e-06
0.00107131
1.14518e-05
-7.71943e-06
0.00107637
1.11426e-05
-1.16719e-05
0.00108686
1.10207e-05
-5.27121e-06
0.00107609
1.22179e-05
0.000900897
8.18571e-06
4.81833e-06
0.000891766
6.00035e-06
1.13439e-05
0.00106284
1.05588e-05
8.33757e-06
0.0010828
8.79824e-06
4.4148e-06
0.00107497
9.33292e-06
1.08939e-06
0.00107014
9.53669e-06
-2.30157e-06
0.0010703
9.53359e-06
-6.44347e-06
0.00107576
9.3059e-06
-9.79716e-06
0.00108408
8.73801e-06
-3.44926e-06
0.00106355
1.05979e-05
0.000894807
6.05936e-06
4.64275e-06
0.000885253
4.95525e-06
9.72598e-06
0.00105285
8.67063e-06
7.61556e-06
0.00107949
7.18959e-06
4.3499e-06
0.00107394
8.27435e-06
1.46794e-06
0.00106907
8.28934e-06
-1.50027e-06
0.00106934
8.26343e-06
-5.06521e-06
0.00107515
8.23553e-06
-7.69592e-06
0.00108154
7.09631e-06
-2.91063e-06
0.00105414
8.75892e-06
0.000889677
5.18475e-06
5.25035e-06
0.000878545
4.36412e-06
8.75704e-06
0.00104606
7.33885e-06
7.19268e-06
0.00107692
5.97182e-06
4.46731e-06
0.00107322
7.58677e-06
1.95777e-06
0.00106838
7.35825e-06
-6.45544e-07
0.00106878
7.32545e-06
-3.64131e-06
0.00107487
7.53567e-06
-5.3781e-06
0.00107972
5.76314e-06
-2.8692e-06
0.00104917
6.75728e-06
0.000884451
5.01217e-06
6.10621e-06
0.000871349
3.98875e-06
8.81286e-06
0.00104092
6.92469e-06
7.28424e-06
0.00107533
5.14613e-06
4.86296e-06
0.00107302
7.12183e-06
2.57823e-06
0.00106822
6.64236e-06
1.72516e-07
0.00106878
6.58983e-06
-2.58308e-06
0.00107516
7.07818e-06
-4.52234e-06
0.00107904
5.0084e-06
-3.09356e-06
0.00104621
6.32842e-06
0.000879522
4.53206e-06
6.98392e-06
0.000863159
3.91309e-06
8.59089e-06
0.00103806
6.09608e-06
7.57259e-06
0.00107427
4.43322e-06
5.49875e-06
0.00107315
6.77349e-06
3.37142e-06
0.00106846
6.07429e-06
1.038e-06
0.00106924
6.01565e-06
-1.72283e-06
0.001076
6.78931e-06
-4.18139e-06
0.00107926
4.52461e-06
-3.07599e-06
0.00104372
6.55094e-06
0.000875418
3.88989e-06
8.04522e-06
0.000853999
3.70134e-06
9.13266e-06
0.00103635
5.82786e-06
8.28202e-06
0.00107368
3.95542e-06
6.42709e-06
0.0010735
6.54923e-06
4.41021e-06
0.00106897
5.61548e-06
2.12222e-06
0.00107
5.56337e-06
-6.64318e-07
0.00107723
6.60174e-06
-3.20704e-06
0.00108005
4.02138e-06
-2.81684e-06
0.00104245
6.28761e-06
0.000872042
3.47559e-06
9.20631e-06
0.000843956
3.36002e-06
1.02136e-05
0.00103495
5.82965e-06
9.40557e-06
0.00107327
3.63498e-06
7.70767e-06
0.00107388
6.42469e-06
5.7745e-06
0.0010696
5.254e-06
3.50359e-06
0.00107091
5.18849e-06
6.49515e-07
0.00107872
6.48527e-06
-2.04347e-06
0.00108131
3.59414e-06
-2.39476e-06
0.00104233
6.04408e-06
0.000869477
3.16737e-06
1.04745e-05
0.000832917
2.99937e-06
1.15724e-05
0.00103358
5.77116e-06
1.09587e-05
0.0010727
3.37985e-06
9.42343e-06
0.00107412
6.33262e-06
7.56083e-06
0.00107025
4.95907e-06
5.26335e-06
0.00107193
4.85955e-06
2.25355e-06
0.00108042
6.40183e-06
-7.19926e-07
0.00108297
3.25527e-06
-1.71885e-06
0.00104308
5.90316e-06
0.000868019
2.88362e-06
1.19739e-05
0.000820663
2.62285e-06
1.34258e-05
0.00103182
5.76578e-06
1.30649e-05
0.00107185
3.19131e-06
1.16951e-05
0.00107414
6.2505e-06
9.89002e-06
0.00107088
4.70958e-06
7.52193e-06
0.00107305
4.56294e-06
4.2856e-06
0.00108236
6.31747e-06
9.16593e-07
0.00108507
2.96554e-06
-7.58341e-07
0.00104458
5.78865e-06
0.000867951
2.61645e-06
1.38355e-05
0.000806803
2.27001e-06
1.58861e-05
0.00102932
5.79585e-06
1.58595e-05
0.00107061
3.05707e-06
1.4676e-05
0.0010739
6.16524e-06
1.29194e-05
0.00107148
4.50608e-06
1.04251e-05
0.00107433
4.2863e-06
6.86617e-06
0.0010846
6.21951e-06
2.95207e-06
0.00108775
2.71753e-06
4.51616e-07
0.00104691
5.71626e-06
0.000869459
2.39354e-06
1.62022e-05
0.00079077
2.00246e-06
1.9104e-05
0.00102577
5.84956e-06
1.95349e-05
0.00106884
3.00442e-06
1.85711e-05
0.00107334
6.10157e-06
1.68569e-05
0.00107204
4.38085e-06
1.41712e-05
0.00107583
4.06383e-06
1.01717e-05
0.00108724
6.13848e-06
5.56716e-06
0.00109113
2.53524e-06
1.94611e-06
0.00105035
5.65073e-06
0.000872724
2.27013e-06
1.92441e-05
0.000771832
1.8588e-06
2.33254e-05
0.00102083
5.96377e-06
2.43528e-05
0.00106642
3.08131e-06
2.36506e-05
0.00107242
6.09492e-06
2.19669e-05
0.00107258
4.35917e-06
1.90153e-05
0.00107761
3.91972e-06
1.44318e-05
0.00109044
6.09331e-06
8.92477e-06
0.00109544
2.43079e-06
3.85408e-06
0.00105523
5.60772e-06
0.000878125
2.25268e-06
2.31514e-05
0.00074909
1.90171e-06
2.88836e-05
0.00101401
6.21011e-06
3.06519e-05
0.00106321
3.33249e-06
3.02584e-05
0.00107109
6.18052e-06
2.85883e-05
0.00107312
4.46523e-06
2.52821e-05
0.0010798
3.88447e-06
1.99385e-05
0.00109438
6.10438e-06
1.32497e-05
0.001101
2.42048e-06
6.31269e-06
0.00106198
5.61459e-06
0.000886212
2.36947e-06
2.81196e-05
0.000721456
2.23921e-06
3.61589e-05
0.00100469
6.6663e-06
3.88427e-05
0.00105905
3.80262e-06
3.88273e-05
0.00106929
6.43038e-06
3.71537e-05
0.0010737
4.74845e-06
3.33897e-05
0.00108253
3.99198e-06
2.70675e-05
0.00109934
6.20886e-06
1.8847e-05
0.00110822
2.54795e-06
9.48667e-06
0.0010712
5.7073e-06
0.000897713
2.66743e-06
3.43299e-05
0.000687672
3.01793e-06
4.56091e-05
0.000991977
7.45446e-06
4.94488e-05
0.00105376
4.60009e-06
4.98973e-05
0.00106696
6.92531e-06
4.82229e-05
0.00107431
5.29106e-06
4.38922e-05
0.00108594
4.31798e-06
3.63275e-05
0.00110562
6.46231e-06
2.61269e-05
0.00111761
2.85909e-06
1.36122e-05
0.00108369
5.94123e-06
0.000913611
3.21506e-06
4.18985e-05
0.000646367
4.46193e-06
5.77604e-05
0.000974623
8.77061e-06
6.31155e-05
0.00104701
5.86285e-06
6.41365e-05
0.00106401
7.77192e-06
6.25045e-05
0.00107494
6.18924e-06
5.75251e-05
0.00109017
4.96434e-06
4.84201e-05
0.00111358
6.95517e-06
3.56539e-05
0.00112984
3.43114e-06
1.9015e-05
0.00110051
6.40169e-06
0.000935243
4.10611e-06
5.08148e-05
0.000596159
6.84644e-06
7.31375e-05
0.000950788
1.09048e-05
8.06153e-05
0.00103822
7.80224e-06
8.23747e-05
0.00106033
9.13622e-06
8.09063e-05
0.00107549
7.59372e-06
7.52578e-05
0.00109531
6.05134e-06
6.43132e-05
0.00112361
7.80917e-06
4.82544e-05
0.00114575
4.37655e-06
2.62005e-05
0.00112306
7.20773e-06
0.000964484
5.47666e-06
6.08416e-05
0.000535778
1.04461e-05
9.20707e-05
0.00091797
1.421e-05
0.000102753
0.00102632
1.0698e-05
0.000105614
0.00105561
1.12595e-05
0.000104583
0.00107572
9.68637e-06
9.84158e-05
0.00110131
7.78539e-06
8.5398e-05
0.00113606
9.20042e-06
6.51579e-05
0.00116636
5.85657e-06
3.59265e-05
0.00115328
8.5357e-06
0.00100402
7.52312e-06
7.12854e-05
0.00046429
1.54735e-05
0.000114309
0.000873001
1.89883e-05
0.000130258
0.00100919
1.49163e-05
0.000135052
0.00104908
1.44772e-05
0.000135026
0.00107508
1.2743e-05
0.000128818
0.00110779
1.0423e-05
0.000113712
0.00115114
1.13642e-05
8.82949e-05
0.00119287
8.10009e-06
4.94402e-05
0.00119386
1.06198e-05
0.00105784
1.05257e-05
8.07813e-05
0.000381749
2.15725e-05
0.000138772
0.000811995
2.53274e-05
0.000163581
0.000982898
2.09936e-05
0.000172093
0.00103893
1.93059e-05
0.000174179
0.00107248
1.71715e-05
0.000168982
0.00111381
1.43058e-05
0.000152302
0.0011686
1.45822e-05
0.00012083
0.00122646
1.13951e-05
6.89871e-05
0.00124853
1.37991e-05
0.00113233
1.48739e-05
8.68151e-05
0.000290188
2.72545e-05
0.000162577
0.000730734
3.26992e-05
0.000201987
0.000941192
2.92564e-05
0.00021817
0.00102133
2.6467e-05
0.000224616
0.00106579
2.35166e-05
0.000222467
0.00111746
1.98265e-05
0.0002058
0.00118722
1.92034e-05
0.000168033
0.0012678
1.60794e-05
9.83183e-05
0.00132275
1.8485e-05
0.00123783
2.11019e-05
8.56676e-05
0.000196423
2.93628e-05
0.000180573
0.000626337
3.88313e-05
0.000242707
0.000875126
3.94569e-05
0.000273985
0.000989066
3.68488e-05
0.000289373
0.00105097
3.25088e-05
0.000294113
0.00111538
2.73372e-05
0.000281283
0.00120384
2.54107e-05
0.000239213
0.00131576
2.23378e-05
0.000147446
0.00142178
2.51443e-05
0.00139536
2.9863e-05
7.19379e-05
0.000122992
2.69715e-05
0.000186806
0.000503336
4.27276e-05
0.000280766
0.000777244
5.08651e-05
0.000338638
0.000931606
5.03195e-05
0.000371751
0.00102088
4.42162e-05
0.000390411
0.00110234
3.6465e-05
0.000389338
0.00121238
3.24867e-05
0.000349877
0.00136523
2.94567e-05
0.000232233
0.00155138
3.36895e-05
0.00164304
4.16451e-05
5.26207e-05
8.15928e-05
1.49866e-05
0.000176443
0.000380844
4.38113e-05
0.000303898
0.000653838
6.17226e-05
0.000403178
0.000841228
6.52222e-05
0.00047166
0.000964364
5.73068e-05
0.000518194
0.0010704
4.5532e-05
0.00054555
0.00120167
3.81669e-05
0.000520993
0.001409
3.47926e-05
0.000419639
0.00167425
4.27531e-05
0.00208854
5.67758e-05
6.7454e-05
-1.93125e-05
3.45954e-05
0.000179649
2.54054e-05
0.000265016
0.000316941
5.26868e-05
0.000522654
0.000451532
6.10375e-05
0.000730069
0.000570982
5.38566e-05
0.000881184
0.000672549
3.95781e-05
0.0010114
0.000770045
2.87862e-05
0.00114737
0.000802275
2.50668e-05
0.00142055
0.000798029
3.90668e-05
0.00171909
7.01812e-05
0.00293202
5.68784e-05
0.000957763
8.3121e-06
2.1432e-05
0.00104982
6.43902e-06
6.37337e-06
0.00103014
6.32012e-06
2.12892e-06
0.00101948
6.31152e-06
5.08871e-08
0.00101743
6.31841e-06
-2.03416e-06
0.00101744
6.31715e-06
-6.29741e-06
0.0010195
6.30878e-06
-2.14261e-05
0.0010302
6.31717e-06
-5.71327e-05
0.00105008
6.44727e-06
0.000957542
8.32513e-06
3.8616e-05
0.000929148
1.31477e-05
2.31972e-05
0.00107572
1.2985e-05
1.27525e-05
0.00105111
1.26326e-05
5.80304e-06
0.00103696
1.24993e-05
1.42934e-07
0.00103382
1.24798e-05
-5.53908e-06
0.00103385
1.2476e-05
-1.25304e-05
0.00103702
1.24905e-05
-2.29783e-05
0.00105115
1.26291e-05
-3.8103e-05
0.00107566
1.30298e-05
0.000929474
1.31676e-05
2.1463e-05
0.000912407
1.1328e-05
1.77618e-05
0.00108646
1.16454e-05
1.13816e-05
0.00106402
1.11179e-05
5.73044e-06
0.00104887
1.09278e-05
3.40002e-07
0.00104563
1.09176e-05
-5.08839e-06
0.00104571
1.0903e-05
-1.08326e-05
0.00104903
1.09173e-05
-1.73873e-05
0.0010642
1.11096e-05
-2.11093e-05
0.00108641
1.16785e-05
0.00091311
1.13347e-05
1.09178e-05
0.000903814
8.94576e-06
1.44022e-05
0.00108816
9.7096e-06
9.44211e-06
0.00107399
9.00515e-06
4.69012e-06
0.00105845
8.80267e-06
5.3793e-07
0.00105478
8.82812e-06
-3.64498e-06
0.0010549
8.82026e-06
-8.51924e-06
0.00105873
8.78116e-06
-1.36689e-05
0.00107433
8.99065e-06
-1.04239e-05
0.00108838
9.74173e-06
0.000904956
8.95425e-06
5.37701e-06
0.000899421
7.34149e-06
1.17659e-05
0.0010855
8.45575e-06
8.25093e-06
0.00108101
7.60667e-06
4.15769e-06
0.00106619
7.59924e-06
7.78184e-07
0.00106192
7.74166e-06
-2.63544e-06
0.00106209
7.75224e-06
-6.88753e-06
0.00106663
7.57729e-06
-1.05925e-05
0.00108153
7.59293e-06
-4.49241e-06
0.00108608
8.47493e-06
0.000901313
7.37128e-06
2.99111e-06
0.000896386
6.11817e-06
9.52072e-06
0.00108212
7.47828e-06
7.14942e-06
0.00108598
6.28573e-06
3.9241e-06
0.00107231
6.52004e-06
1.08421e-06
0.00106762
6.76247e-06
-1.83428e-06
0.00106785
6.77516e-06
-5.2831e-06
0.00107297
6.50016e-06
-8.02096e-06
0.00108684
6.24775e-06
-1.74682e-06
0.00108301
7.45523e-06
0.00089946
6.20474e-06
2.48601e-06
0.000893716
5.22649e-06
8.04582e-06
0.00107888
6.44264e-06
6.13146e-06
0.00109022
4.96676e-06
3.78979e-06
0.00107754
5.48599e-06
1.46366e-06
0.00107258
5.76011e-06
-9.80573e-07
0.00107289
5.76994e-06
-3.62318e-06
0.00107849
5.45899e-06
-6.07951e-06
0.0010916
4.88916e-06
-9.07178e-07
0.00108028
6.39113e-06
0.000898382
5.39884e-06
2.87536e-06
0.000890707
4.59753e-06
7.17909e-06
0.00107642
5.59379e-06
5.48364e-06
0.00109408
3.9164e-06
3.86341e-06
0.00108216
4.70139e-06
1.94146e-06
0.00107703
4.93703e-06
-1.27538e-07
0.00107746
4.94307e-06
-2.09385e-06
0.00108345
4.6546e-06
-4.35406e-06
0.00109597
3.74718e-06
-1.02369e-06
0.00107842
5.36364e-06
0.000897508
4.90805e-06
3.4338e-06
0.00088717
4.20144e-06
6.82988e-06
0.00107494
5.12521e-06
5.30072e-06
0.00109768
3.18846e-06
4.2197e-06
0.00108629
4.18625e-06
2.54666e-06
0.00108111
4.34896e-06
6.77817e-07
0.00108168
4.34675e-06
-8.6192e-07
0.00108803
4.15047e-06
-3.08815e-06
0.00110028
3.01836e-06
-9.87328e-07
0.00107793
4.8024e-06
0.000896566
4.53605e-06
4.26518e-06
0.000882985
3.94881e-06
6.75014e-06
0.00107398
4.68226e-06
5.45732e-06
0.00110089
2.62819e-06
4.8288e-06
0.00108998
3.8266e-06
3.31811e-06
0.00108491
3.90374e-06
1.54525e-06
0.0010857
3.89554e-06
2.74819e-07
0.00109238
3.82672e-06
-2.00515e-06
0.00110465
2.53866e-06
-5.80671e-07
0.00107857
4.58167e-06
0.000895706
4.22179e-06
5.05186e-06
0.000877982
3.77331e-06
7.08438e-06
0.00107347
4.42383e-06
5.97519e-06
0.00110386
2.20915e-06
5.722e-06
0.00109333
3.56562e-06
4.32705e-06
0.00108851
3.53541e-06
2.61433e-06
0.00108957
3.52277e-06
1.5473e-06
0.00109658
3.58338e-06
-7.98682e-07
0.001109
2.12417e-06
-1.43849e-07
0.00107992
4.36944e-06
0.000895097
3.99472e-06
5.77726e-06
0.000872034
3.65429e-06
7.78245e-06
0.00107314
4.27478e-06
6.88195e-06
0.00110661
1.90663e-06
6.95431e-06
0.00109642
3.38408e-06
5.65145e-06
0.00109194
3.24247e-06
3.95338e-06
0.00109336
3.21871e-06
3.00203e-06
0.00110072
3.40776e-06
5.02257e-07
0.00111343
1.76849e-06
5.03539e-07
0.00108188
4.17153e-06
0.000894974
3.85105e-06
6.64587e-06
0.00086497
3.54263e-06
8.84355e-06
0.00107267
4.16311e-06
8.23431e-06
0.00110902
1.69918e-06
8.60029e-06
0.00109924
3.26783e-06
7.37675e-06
0.00109523
3.0175e-06
5.64207e-06
0.0010971
2.97424e-06
4.694e-06
0.00110489
3.29276e-06
1.96291e-06
0.00111804
1.48216e-06
1.40244e-06
0.00108441
4.03076e-06
0.000895574
3.74522e-06
7.78706e-06
0.000856509
3.42077e-06
1.03643e-05
0.00107188
4.09971e-06
1.01315e-05
0.00111099
1.57417e-06
1.07657e-05
0.00110177
3.19697e-06
9.61809e-06
0.00109836
2.8458e-06
7.80187e-06
0.00110082
2.77697e-06
6.74011e-06
0.00110916
3.21998e-06
3.69854e-06
0.00112288
1.26095e-06
2.47129e-06
0.00108759
3.93479e-06
0.000897104
3.61787e-06
9.34193e-06
0.000846266
3.29566e-06
1.24675e-05
0.00107058
4.08371e-06
1.26929e-05
0.00111242
1.51507e-06
1.35946e-05
0.001104
3.15409e-06
1.25263e-05
0.00110133
2.71657e-06
1.05769e-05
0.00110457
2.61015e-06
9.2805e-06
0.00111362
3.17215e-06
5.81807e-06
0.00112807
1.09265e-06
3.74525e-06
0.00109159
3.88185e-06
0.000899826
3.4778e-06
1.14558e-05
0.000833728
3.20673e-06
1.53355e-05
0.00106854
4.11751e-06
1.6107e-05
0.00111323
1.53127e-06
1.72785e-05
0.00110589
3.1457e-06
1.62906e-05
0.00110417
2.64252e-06
1.41488e-05
0.0011084
2.48353e-06
1.24784e-05
0.00111838
3.15337e-06
8.4333e-06
0.00113378
9.75402e-07
5.27814e-06
0.00109663
3.85232e-06
0.00090406
3.3752e-06
1.42782e-05
0.000818228
3.19998e-06
1.91732e-05
0.00106551
4.21598e-06
2.06095e-05
0.00111333
1.64637e-06
2.20635e-05
0.00110745
3.19108e-06
2.11557e-05
0.00110691
2.64076e-06
1.8752e-05
0.00111242
2.41217e-06
1.65447e-05
0.00112361
3.17308e-06
1.17083e-05
0.00114022
9.16163e-07
7.16349e-06
0.00110303
3.84435e-06
0.000910202
3.33516e-06
1.79732e-05
0.00079896
3.31323e-06
2.42807e-05
0.00106108
4.42847e-06
2.6507e-05
0.00111264
1.90395e-06
2.82656e-05
0.00110865
3.32095e-06
2.74341e-05
0.00110957
2.73532e-06
2.46879e-05
0.00111674
2.41831e-06
2.17503e-05
0.00112951
3.24679e-06
1.58579e-05
0.0011477
9.31106e-07
9.52751e-06
0.0011112
3.87247e-06
0.000918784
3.37644e-06
2.27116e-05
0.000774974
3.62872e-06
3.09953e-05
0.00105476
4.81118e-06
3.4165e-05
0.00111103
2.3445e-06
3.62787e-05
0.00110949
3.57956e-06
3.55259e-05
0.00111222
2.96063e-06
3.2344e-05
0.00112148
2.53202e-06
2.84476e-05
0.00113631
3.39918e-06
2.11679e-05
0.00115657
1.04658e-06
1.25265e-05
0.00112167
3.96205e-06
0.000930509
3.52932e-06
2.86453e-05
0.000745202
4.25633e-06
3.97116e-05
0.0010458
5.44508e-06
4.40389e-05
0.00110836
3.03353e-06
4.65778e-05
0.00110995
4.02977e-06
4.59316e-05
0.00111489
3.3711e-06
4.22283e-05
0.0011268
2.80157e-06
3.7108e-05
0.00114432
3.66926e-06
2.80183e-05
0.00116732
1.29937e-06
1.63872e-05
0.00113519
4.1486e-06
0.000946333
3.83782e-06
3.58554e-05
0.000708579
5.3427e-06
5.09038e-05
0.00103316
6.45326e-06
5.66789e-05
0.00110448
4.06146e-06
5.97446e-05
0.00111
4.75271e-06
5.92772e-05
0.0011176
4.03747e-06
5.50006e-05
0.00113285
3.29601e-06
4.83686e-05
0.00115389
4.1146e-06
3.69359e-05
0.00118053
1.73979e-06
2.14168e-05
0.00115271
4.48624e-06
0.00096755
4.36438e-06
4.43073e-05
0.000664155
7.0762e-06
6.49569e-05
0.0010155
7.99971e-06
7.2701e-05
0.00109909
5.543e-06
7.64787e-05
0.00110959
5.85887e-06
7.63547e-05
0.00112036
5.05711e-06
7.15284e-05
0.00113972
4.1016e-06
6.31097e-05
0.0011654
4.81326e-06
4.86778e-05
0.00119699
2.43946e-06
2.80855e-05
0.00117555
5.04458e-06
0.000995974
5.19469e-06
5.37308e-05
0.00061132
9.66673e-06
8.20747e-05
0.000991186
1.02744e-05
9.27339e-05
0.0010916
7.62215e-06
9.75902e-05
0.00110859
7.49313e-06
9.81328e-05
0.00112304
6.55378e-06
9.29715e-05
0.00114743
5.33379e-06
8.25789e-05
0.00117922
5.86404e-06
6.43643e-05
0.00121765
3.48919e-06
3.70965e-05
0.00120551
5.91974e-06
0.00103421
6.43693e-06
6.36003e-05
0.000550319
1.29948e-05
0.000102198
0.000958191
1.34742e-05
0.000117343
0.00108089
1.05614e-05
0.000123989
0.00110665
9.86149e-06
0.000125822
0.00112536
8.6843e-06
0.000120893
0.00115574
7.12806e-06
0.00010859
0.0011956
7.37853e-06
8.57486e-05
0.00124368
4.9947e-06
4.9586e-05
0.00124515
7.21922e-06
0.00108615
8.22338e-06
7.30028e-05
0.000482262
1.67515e-05
0.000124463
0.000914468
1.76777e-05
0.000146766
0.00106509
1.4576e-05
0.000156633
0.00110299
1.31849e-05
0.000160901
0.00112674
1.16202e-05
0.000157402
0.00116403
9.60537e-06
0.000143839
0.00121439
9.43807e-06
0.000115712
0.00127625
7.03107e-06
6.76555e-05
0.00129804
9.03661e-06
0.00115804
1.06767e-05
8.05537e-05
0.000408813
2.02772e-05
0.000147085
0.000858172
2.25495e-05
0.00018051
0.00104131
1.9694e-05
0.000196327