/*--------------------------------*- C++ -*----------------------------------*\
| =========                 |                                                 |
| \\      /  F ield         | OpenFOAM: The Open Source CFD Toolbox           |
|  \\    /   O peration     | Version:  4.1                                   |
|   \\  /    A nd           | Web:      www.OpenFOAM.org                      |
|    \\/     M anipulation  |                                                 |
\*---------------------------------------------------------------------------*/
FoamFile
{
    version     2.0;
    format      ascii;
    class       volVectorField;
    location    "800";
    object      U;
}
// * * * * * * * * * * * * * * * * * * * * * * * * * * * * * * * * * * * * * //

dimensions      [0 1 -1 0 0 0 0];

internalField   nonuniform List<vector> 
12000
(
(0.0919711 -0.00968413 0.00968015)
(0.0965757 -0.00180601 0.0106471)
(0.09598 -0.00134889 0.0110572)
(0.0955884 -0.000557361 0.0110788)
(0.0954911 -0.000150076 0.0111084)
(0.0954913 0.000134003 0.0111084)
(0.0955889 0.00054236 0.0110791)
(0.0959802 0.00133507 0.0110579)
(0.0965762 0.00179168 0.0106451)
(0.0919748 0.00968824 0.00967904)
(0.086232 -0.00379637 0.00378846)
(0.0952487 -0.00250376 0.00519359)
(0.0938241 -0.00193622 0.00562733)
(0.0927444 -0.000879004 0.00561227)
(0.0924078 -0.000276428 0.00564821)
(0.0924088 0.00023683 0.00564824)
(0.092747 0.000840757 0.00561184)
(0.0938262 0.00189671 0.0056265)
(0.0952518 0.00245823 0.00519623)
(0.0862442 0.00379187 0.00379553)
(0.0823529 0.000800896 -0.000815867)
(0.09361 -0.00252834 0.00011444)
(0.0922609 -0.00159929 0.000380654)
(0.091016 -0.000784901 0.00039258)
(0.0905353 -0.00029678 0.000432246)
(0.0905387 0.000226073 0.00043206)
(0.091023 0.000718046 0.000391669)
(0.0922677 0.00153535 0.000377125)
(0.0936173 0.00246767 0.000113135)
(0.0824036 -0.000815856 -0.000806473)
(0.0796961 0.00271775 -0.00274056)
(0.0916326 -0.00247501 -0.00236899)
(0.090822 -0.00111912 -0.00231511)
(0.0897613 -0.000654664 -0.00224104)
(0.0892499 -0.000296025 -0.00218933)
(0.089254 0.000186698 -0.00219087)
(0.0897777 0.000553459 -0.00224307)
(0.0908354 0.00102535 -0.00232407)
(0.0916514 0.00239708 -0.00237127)
(0.0798017 -0.00274496 -0.00272513)
(0.0783576 0.00320119 -0.00323488)
(0.0903015 -0.00238204 -0.00323735)
(0.0900823 -0.000726098 -0.003391)
(0.0892325 -0.000604965 -0.00325363)
(0.0887105 -0.00030424 -0.00319166)
(0.0887253 0.000144939 -0.00319067)
(0.0892588 0.000459111 -0.00325947)
(0.0901101 0.000593226 -0.00340484)
(0.0903372 0.00228614 -0.00323646)
(0.0785385 -0.00325369 -0.00322492)
(0.0776503 0.00307744 -0.00312873)
(0.0895227 -0.00226322 -0.00334217)
(0.0897757 -0.000423315 -0.00373934)
(0.0890599 -0.000603862 -0.00355239)
(0.0885195 -0.000311473 -0.00349027)
(0.0885429 8.84649e-05 -0.00348842)
(0.089104 0.000401049 -0.00355934)
(0.0898292 0.000243389 -0.00375326)
(0.0895931 0.00214086 -0.00332618)
(0.0779335 -0.00316063 -0.00312169)
(0.0770385 0.00274678 -0.00282167)
(0.0890877 -0.00215628 -0.00303495)
(0.089626 -0.000243913 -0.0037085)
(0.0889673 -0.000635306 -0.00350524)
(0.0884169 -0.000316961 -0.00345473)
(0.0884485 1.12558e-05 -0.0034536)
(0.0890359 0.000359008 -0.00350982)
(0.0897112 2.66286e-06 -0.00372397)
(0.089158 0.00199257 -0.003014)
(0.0774522 -0.00286627 -0.00281087)
(0.0763582 0.00236525 -0.00246904)
(0.0884164 -0.00204657 -0.00272815)
(0.089442 -0.000154385 -0.00350375)
(0.088814 -0.000691731 -0.00327297)
(0.0882759 -0.000329119 -0.00324118)
(0.0883178 -8.63562e-05 -0.00324116)
(0.0889156 0.00032 -0.00327623)
(0.0895859 -0.000150695 -0.00351159)
(0.0885764 0.00182711 -0.0026656)
(0.0769731 -0.00254227 -0.00246252)
(0.0756347 0.0019848 -0.00212503)
(0.0878871 -0.00195769 -0.0023824)
(0.0892104 -0.000122582 -0.00325396)
(0.0885807 -0.000773548 -0.00299359)
(0.0880754 -0.000357326 -0.00298441)
(0.0881325 -0.000203944 -0.00298605)
(0.0887293 0.000269403 -0.00300071)
(0.0894367 -0.000298254 -0.00327749)
(0.0879003 0.00164 -0.00241378)
(0.0765238 -0.00222846 -0.00211746)
(0.0748867 0.00164431 -0.00183107)
(0.0872549 -0.0018835 -0.00210131)
(0.0889579 -0.000157897 -0.00301663)
(0.0883043 -0.000879478 -0.00273742)
(0.0878538 -0.00040827 -0.00274973)
(0.087931 -0.000342778 -0.00275496)
(0.0885177 0.000201299 -0.00274866)
(0.089298 -0.00044891 -0.00306383)
(0.0873598 0.00143943 -0.00217435)
(0.0761132 -0.00195719 -0.00180753)
(0.0741024 0.0013338 -0.00158038)
(0.0865667 -0.00183061 -0.00190613)
(0.0886741 -0.000233497 -0.00281572)
(0.0879885 -0.00101064 -0.00252364)
(0.0876139 -0.000490661 -0.00255481)
(0.0877227 -0.000507545 -0.00256682)
(0.0882903 0.000108065 -0.0025354)
(0.0891623 -0.000584019 -0.00287016)
(0.0868401 0.00123166 -0.00194994)
(0.0757573 -0.00174651 -0.00154972)
(0.0732473 0.00104406 -0.00136817)
(0.0858874 -0.0018123 -0.00172845)
(0.0883591 -0.00035471 -0.00264646)
(0.0876537 -0.0011721 -0.00234749)
(0.0873719 -0.000612998 -0.00239115)
(0.0875301 -0.000706045 -0.00240579)
(0.0880693 -2.31482e-05 -0.00235363)
(0.0890415 -0.000721615 -0.00270092)
(0.0863432 0.00101457 -0.00176155)
(0.0754562 -0.00158198 -0.00132985)
(0.0722855 0.000765745 -0.0011906)
(0.0851924 -0.00183857 -0.00157355)
(0.0880077 -0.000529611 -0.00250237)
(0.0873047 -0.00137354 -0.00220217)
(0.087129 -0.000787381 -0.00225136)
(0.0873519 -0.000949475 -0.00226563)
(0.0878648 -0.000204187 -0.00219877)
(0.0889467 -0.000880992 -0.00255359)
(0.0859178 0.000785092 -0.00159581)
(0.0752201 -0.00145353 -0.00113666)
(0.0711867 0.000484358 -0.00103906)
(0.0844996 -0.00191954 -0.00144534)
(0.0876277 -0.000763848 -0.00236114)
(0.0869529 -0.00163138 -0.00206876)
(0.0868975 -0.00103049 -0.00211917)
(0.0872063 -0.00125151 -0.0021349)
(0.0877018 -0.000447535 -0.00205548)
(0.0889013 -0.00107911 -0.00241285)
(0.0855777 0.000534084 -0.00145811)
(0.0750618 -0.0013567 -0.000964268)
(0.0699071 0.000188077 -0.00090883)
(0.083804 -0.00207082 -0.00133627)
(0.0872057 -0.00107423 -0.0022281)
(0.0865953 -0.00196564 -0.0019489)
(0.0866711 -0.00136247 -0.00199766)
(0.0870897 -0.00162958 -0.00201507)
(0.0875886 -0.00077115 -0.00192598)
(0.0889155 -0.00133589 -0.00228427)
(0.085359 0.000251122 -0.00134704)
(0.0750052 -0.00129025 -0.000810431)
(0.0683883 -0.000135826 -0.000795283)
(0.0830845 -0.00231282 -0.00123912)
(0.0867301 -0.00148566 -0.00210288)
(0.0862247 -0.00240197 -0.00184202)
(0.0864492 -0.00180987 -0.00188601)
(0.0870066 -0.00210738 -0.00190627)
(0.0875389 -0.00119709 -0.00181036)
(0.0890095 -0.00166901 -0.00216674)
(0.08529 -7.53419e-05 -0.00125296)
(0.075079 -0.0012566 -0.000674087)
(0.0665527 -0.00050152 -0.000692842)
(0.0823043 -0.0026701 -0.00114794)
(0.0861805 -0.00203032 -0.00198147)
(0.0858293 -0.00297271 -0.0017452)
(0.0862241 -0.00240597 -0.00178044)
(0.0869572 -0.00271578 -0.0018048)
(0.0875651 -0.00175287 -0.00170444)
(0.0892026 -0.00210139 -0.00205529)
(0.0854025 -0.000463009 -0.00116875)
(0.0753192 -0.00126088 -0.000550702)
(0.0642972 -0.000923918 -0.000593682)
(0.0814059 -0.00317223 -0.001055)
(0.0855371 -0.00274922 -0.00185619)
(0.0853941 -0.00371884 -0.00165349)
(0.0859885 -0.00319267 -0.00167561)
(0.0869426 -0.00349476 -0.00170604)
(0.0876807 -0.0024752 -0.00160322)
(0.0895146 -0.0026637 -0.00194484)
(0.0857331 -0.000935281 -0.00108877)
(0.0757711 -0.00130999 -0.000433528)
(0.0614895 -0.00141631 -0.000487566)
(0.0803035 -0.00385345 -0.000948483)
(0.0847659 -0.00369558 -0.00171794)
(0.0848956 -0.004693 -0.00156079)
(0.0857252 -0.00422237 -0.00156682)
(0.0869608 -0.00449602 -0.00160313)
(0.0878987 -0.00341377 -0.00150124)
(0.089971 -0.00339713 -0.00183157)
(0.0863273 -0.00152183 -0.00100816)
(0.0764909 -0.0014143 -0.000315847)
(0.0579648 -0.00198693 -0.000360885)
(0.0788592 -0.00475106 -0.000815447)
(0.0838196 -0.00493494 -0.00155624)
(0.0843088 -0.00596064 -0.00145772)
(0.0854154 -0.00556101 -0.00144797)
(0.0870021 -0.00578582 -0.00149084)
(0.0882326 -0.00463231 -0.00139255)
(0.0906068 -0.00435716 -0.00170697)
(0.08724 -0.00226355 -0.000920055)
(0.0775528 -0.00158781 -0.000188922)
(0.0535258 -0.00263161 -0.000194915)
(0.0768734 -0.005898 -0.000637496)
(0.0826331 -0.00654082 -0.00135814)
(0.0835902 -0.00760127 -0.00133218)
(0.0850281 -0.00729059 -0.00130955)
(0.0870527 -0.00745048 -0.00135828)
(0.0886914 -0.00621574 -0.00126841)
(0.0914557 -0.00562045 -0.00156236)
(0.0885412 -0.00321732 -0.000816917)
(0.0790525 -0.00185258 -4.29743e-05)
(0.0479547 -0.00332126 3.29098e-05)
(0.0740596 -0.00730697 -0.000392552)
(0.0810935 -0.00858582 -0.00110447)
(0.0826789 -0.00970925 -0.00116695)
(0.0845129 -0.00950947 -0.00113959)
(0.0870768 -0.00960093 -0.00119235)
(0.0892773 -0.00828025 -0.00111608)
(0.0925625 -0.00729599 -0.00138558)
(0.0903219 -0.00446415 -0.000686541)
(0.0811233 -0.00224042 0.000135815)
(0.0410463 -0.00398164 0.000340674)
(0.0700351 -0.00894085 -5.53785e-05)
(0.0790162 -0.0111161 -0.000767416)
(0.0814744 -0.0123905 -0.000937761)
(0.0837934 -0.0123367 -0.000919119)
(0.0870063 -0.0123809 -0.000974333)
(0.0899704 -0.0109842 -0.000917314)
(0.0939686 -0.00954252 -0.00116135)
(0.092698 -0.00612626 -0.000513787)
(0.0839458 -0.00280385 0.00036476)
(0.0326906 -0.00446403 0.000721849)
(0.064329 -0.0106644 0.000390829)
(0.0760704 -0.0140987 -0.000321773)
(0.0798129 -0.0157417 -0.000610822)
(0.0827369 -0.0159167 -0.000625777)
(0.0867272 -0.015975 -0.00068167)
(0.0907102 -0.014548 -0.000646897)
(0.0957117 -0.0125982 -0.000865603)
(0.0958278 -0.00839383 -0.000273434)
(0.0878003 -0.00362266 0.000669315)
(0.0229788 -0.00451556 0.00111317)
(0.0564136 -0.0121746 0.00092331)
(0.0716978 -0.0173249 0.000251252)
(0.077358 -0.0197948 -0.000147402)
(0.0811306 -0.0204137 -0.000224875)
(0.0860414 -0.0206221 -0.000283851)
(0.0913637 -0.0192798 -0.000271635)
(0.097804 -0.0168295 -0.0004671)
(0.0999239 -0.0115899 6.66282e-05)
(0.0930878 -0.00485395 0.00108398)
(0.012412 -0.00373225 0.00131265)
(0.0459702 -0.0128921 0.001409)
(0.0651244 -0.020276 0.000966019)
(0.0735062 -0.0244117 0.000524501)
(0.0786011 -0.0260008 0.000339386)
(0.0846261 -0.0266501 0.000251625)
(0.0916438 -0.0256266 0.000245291)
(0.100155 -0.022814 7.69352e-05)
(0.105249 -0.016259 0.000555159)
(0.100614 -0.00671543 0.00166413)
(0.00193085 -0.00144076 0.00121757)
(0.0328102 -0.0119287 0.00155816)
(0.0550429 -0.0220451 0.00168887)
(0.0670141 -0.0290639 0.00147358)
(0.0743851 -0.0326833 0.00119024)
(0.0819707 -0.0344185 0.000997673)
(0.0911337 -0.0341854 0.000948858)
(0.10259 -0.0314721 0.00081521)
(0.112205 -0.0234857 0.00126269)
(0.111446 -0.00993875 0.00249289)
(-0.00343765 0.0016421 0.00165319)
(0.0189551 -0.00837186 0.00195722)
(0.0409326 -0.0213477 0.0025642)
(0.0563467 -0.032761 0.00269182)
(0.0670523 -0.0402158 0.00239936)
(0.0769796 -0.0443926 0.00204444)
(0.0887361 -0.0458706 0.00189027)
(0.104181 -0.0442291 0.00179384)
(0.120544 -0.035309 0.00225934)
(0.129473 -0.0151013 0.00369164)
(-0.00619854 1.05096e-05 0.000397172)
(0.00167702 -0.00496199 0.00216091)
(0.0207744 -0.0173292 0.00405977)
(0.039075 -0.0326627 0.00480734)
(0.0543256 -0.0459911 0.004455)
(0.068257 -0.0556467 0.00371657)
(0.08367 -0.061526 0.00323322)
(0.104582 -0.0633583 0.00304378)
(0.130363 -0.0562866 0.00366081)
(0.157026 -0.0283375 0.00543544)
(-0.0113695 -0.00413171 -0.00217685)
(-0.013064 -0.0135145 -0.00219071)
(-0.00245941 -0.0224814 0.000968578)
(0.0137138 -0.0336451 0.00450909)
(0.0308772 -0.0484301 0.00624878)
(0.0490739 -0.0643883 0.00624402)
(0.0685582 -0.0797615 0.00542265)
(0.0975697 -0.0896516 0.00485627)
(0.130553 -0.101007 0.00513719)
(0.218038 -0.0467923 0.00787961)
(0.0965723 -0.0106508 0.00179998)
(0.1014 -0.00136371 0.00135928)
(0.100954 -0.00122143 0.00145684)
(0.100676 -0.00046001 0.00143172)
(0.100631 -0.000113034 0.00144597)
(0.100631 0.000101678 0.0014459)
(0.100676 0.000449865 0.00143141)
(0.100956 0.00121319 0.00145576)
(0.101407 0.00135405 0.00135983)
(0.0965752 0.0107129 0.00180634)
(0.0952371 -0.00520035 0.00249206)
(0.108422 -0.00240502 0.00239808)
(0.106214 -0.00198974 0.00240914)
(0.105011 -0.000802102 0.00236365)
(0.104768 -0.000246723 0.00240055)
(0.104769 0.000213828 0.00240078)
(0.105014 0.000771011 0.00236225)
(0.10622 0.00195658 0.00240401)
(0.108436 0.0023488 0.00239544)
(0.0952294 0.00526086 0.00249899)
(0.0935889 -0.000127803 0.00250666)
(0.110642 -0.00290164 0.00288205)
(0.108885 -0.00167915 0.00282231)
(0.107317 -0.000703289 0.00276294)
(0.106924 -0.000282872 0.00280687)
(0.106927 0.000211625 0.0028056)
(0.107327 0.000636243 0.00276191)
(0.108895 0.00162038 0.0028164)
(0.110639 0.002846 0.0028814)
(0.093623 0.000202395 0.00251147)
(0.0915928 0.00234731 0.00244541)
(0.109747 -0.00298853 0.00295594)
(0.109174 -0.00121995 0.00295237)
(0.10777 -0.000593949 0.00293664)
(0.10734 -0.000296601 0.00298447)
(0.107348 0.000185054 0.00298493)
(0.107791 0.000489621 0.00293408)
(0.109208 0.00113122 0.00294874)
(0.109759 0.0029203 0.00295713)
(0.0916662 -0.00230363 0.00243838)
(0.090234 0.00320148 0.00233786)
(0.108224 -0.00291068 0.0028538)
(0.108746 -0.000865648 0.00289679)
(0.107622 -0.000577095 0.00295927)
(0.107181 -0.000315547 0.00301061)
(0.107188 0.000156602 0.00301068)
(0.107662 0.000428223 0.00295857)
(0.108808 0.000738347 0.00289938)
(0.108255 0.0028286 0.00287004)
(0.0903739 -0.00326549 0.00231899)
(0.0894144 0.0032861 0.00219172)
(0.106878 -0.00284929 0.00276924)
(0.108409 -0.000607326 0.00279664)
(0.107516 -0.000612607 0.0029211)
(0.10705 -0.000328975 0.00296221)
(0.107062 0.000110945 0.00295808)
(0.107579 0.000408949 0.00292329)
(0.108507 0.000433396 0.00280134)
(0.106922 0.00272483 0.00277955)
(0.0896636 -0.00344249 0.00217628)
(0.0889256 0.00295342 0.00205107)
(0.105644 -0.00258827 0.00248575)
(0.108089 -0.00042445 0.0026866)
(0.107441 -0.000657927 0.00287742)
(0.106954 -0.000327909 0.0028919)
(0.106975 3.36013e-05 0.00288642)
(0.107539 0.000385826 0.00288153)
(0.108255 0.000190091 0.00270153)
(0.105751 0.00243557 0.00251166)
(0.0892727 -0.00317925 0.00204835)
(0.0881752 0.00261797 0.00190194)
(0.104963 -0.00242645 0.00229499)
(0.107822 -0.000302036 0.00257514)
(0.107359 -0.000725565 0.00280921)
(0.106869 -0.000323808 0.00279045)
(0.106903 -7.04372e-05 0.0027847)
(0.107501 0.000358138 0.00281731)
(0.108048 -1.99087e-05 0.00259831)
(0.105096 0.00210318 0.00220488)
(0.0887519 -0.00285378 0.00191472)
(0.0875403 0.00223744 0.00176372)
(0.104279 -0.00233971 0.00216854)
(0.107596 -0.000259989 0.00246404)
(0.107308 -0.000823616 0.00273489)
(0.106825 -0.000328451 0.00268246)
(0.106872 -0.000191963 0.00267701)
(0.107497 0.000348505 0.00274654)
(0.107931 -0.000189602 0.00250738)
(0.104784 0.00199943 0.0021391)
(0.0881569 -0.002614 0.00176949)
(0.0867602 0.00191267 0.00162458)
(0.103899 -0.00222409 0.00200208)
(0.107461 -0.000248291 0.00236537)
(0.107299 -0.000941085 0.00266191)
(0.106824 -0.000346353 0.00257736)
(0.106892 -0.000332985 0.00257163)
(0.107546 0.000338039 0.00267552)
(0.107897 -0.000328973 0.00240762)
(0.104466 0.00193723 0.00213104)
(0.0877278 -0.00239127 0.00162604)
(0.085868 0.00166374 0.00148632)
(0.103712 -0.00223344 0.00194037)
(0.107391 -0.000276974 0.00228078)
(0.107329 -0.00108944 0.00259726)
(0.106867 -0.000386958 0.00247995)
(0.106958 -0.000502127 0.00247708)
(0.107654 0.000299485 0.00261256)
(0.10795 -0.000474798 0.00231294)
(0.104269 0.00179529 0.00205322)
(0.0873625 -0.00219106 0.00149339)
(0.0849167 0.00141583 0.00135303)
(0.103554 -0.00230064 0.00191032)
(0.107347 -0.000347206 0.00219586)
(0.10737 -0.00126705 0.00253739)
(0.106927 -0.000461746 0.00238909)
(0.107042 -0.000703374 0.00238453)
(0.107792 0.000225663 0.00255249)
(0.108059 -0.000637661 0.00222447)
(0.104219 0.00165119 0.00198774)
(0.0870516 -0.00203515 0.00137434)
(0.0838637 0.00116959 0.00122615)
(0.103427 -0.00238933 0.00187158)
(0.107304 -0.000463018 0.00211705)
(0.107405 -0.00147818 0.00247808)
(0.106994 -0.000583424 0.00230489)
(0.107142 -0.000941845 0.00229448)
(0.107955 0.000108098 0.00249292)
(0.108208 -0.000819757 0.00214031)
(0.104251 0.0015001 0.00193475)
(0.0868448 -0.00191506 0.00126946)
(0.0827058 0.000925396 0.00110694)
(0.103281 -0.00252117 0.00183629)
(0.107234 -0.000642469 0.00203888)
(0.107419 -0.00173353 0.00241404)
(0.107057 -0.00076722 0.00222203)
(0.107247 -0.00122614 0.00220338)
(0.108135 -6.77635e-05 0.00242807)
(0.108392 -0.00103156 0.00205627)
(0.10437 0.00132731 0.00188466)
(0.0867605 -0.00183544 0.00117502)
(0.0814129 0.000669621 0.000997526)
(0.103075 -0.00270237 0.00179942)
(0.107132 -0.000898938 0.0019643)
(0.107408 -0.00204916 0.00234622)
(0.107119 -0.00103011 0.00214375)
(0.107366 -0.00157084 0.00211352)
(0.108341 -0.00031403 0.00235936)
(0.108629 -0.00128335 0.00197549)
(0.104553 0.00112757 0.00184238)
(0.086837 -0.00179402 0.00109102)
(0.0799349 0.000388019 0.000901671)
(0.10278 -0.0029429 0.00175751)
(0.106984 -0.0012509 0.0018987)
(0.107369 -0.00244566 0.00227997)
(0.107177 -0.00139402 0.00207543)
(0.107503 -0.00199525 0.00203147)
(0.108583 -0.000649717 0.0022926)
(0.108928 -0.0015915 0.00190388)
(0.104837 0.000881596 0.0018031)
(0.0870695 -0.0017805 0.00102075)
(0.0782063 6.72333e-05 0.00082273)
(0.102364 -0.00326383 0.00171568)
(0.106779 -0.00172388 0.00184856)
(0.107296 -0.00294974 0.00222124)
(0.107233 -0.00188679 0.00202106)
(0.107666 -0.00252446 0.00196145)
(0.108872 -0.0010996 0.00223115)
(0.109307 -0.00197637 0.0018441)
(0.105246 0.000571119 0.00176668)
(0.0874932 -0.0017932 0.000968406)
(0.0761457 -0.000306763 0.000767495)
(0.101791 -0.00369325 0.00168311)
(0.1065 -0.0023519 0.00181777)
(0.107184 -0.00359502 0.00217433)
(0.107285 -0.00254382 0.00198288)
(0.107862 -0.00319108 0.00190745)
(0.109225 -0.00169522 0.00217789)
(0.109794 -0.00246432 0.00179845)
(0.105818 0.000176296 0.00173693)
(0.0881553 -0.00183694 0.000938332)
(0.0736584 -0.000750065 0.000746827)
(0.101001 -0.00425932 0.00166777)
(0.106135 -0.00317597 0.00180964)
(0.107031 -0.00442425 0.00214912)
(0.107341 -0.00340911 0.00196727)
(0.108105 -0.00403754 0.00187294)
(0.109665 -0.00247709 0.00213795)
(0.110425 -0.00308992 0.00177302)
(0.106603 -0.000328078 0.00171942)
(0.0891191 -0.0019193 0.000936054)
(0.0706236 -0.00127353 0.000775395)
(0.0999258 -0.00499467 0.00168465)
(0.105669 -0.00424828 0.0018364)
(0.106826 -0.0054902 0.00215325)
(0.1074 -0.00453871 0.0019837)
(0.10841 -0.00511976 0.00186764)
(0.11022 -0.0034993 0.00211779)
(0.111244 -0.00389995 0.00177255)
(0.107671 -0.000975762 0.00172219)
(0.0904681 -0.00205338 0.000969307)
(0.0669114 -0.00188115 0.000876665)
(0.0984632 -0.00593382 0.0017562)
(0.105077 -0.00563048 0.00191019)
(0.106563 -0.00685932 0.00219723)
(0.107464 -0.00600174 0.00204212)
(0.108789 -0.00651038 0.00190274)
(0.110924 -0.00483545 0.00212864)
(0.112312 -0.00495979 0.0018064)
(0.109114 -0.00181236 0.00175684)
(0.0923166 -0.00225655 0.00104979)
(0.0623806 -0.00256134 0.00107761)
(0.0964644 -0.00710742 0.00191405)
(0.10432 -0.00739134 0.00205342)
(0.106235 -0.00861357 0.00229721)
(0.107526 -0.00788468 0.002159)
(0.109256 -0.00830394 0.00199071)
(0.111816 -0.00658457 0.00218466)
(0.113701 -0.00636192 0.00188689)
(0.111054 -0.00290647 0.00183892)
(0.0948229 -0.00255876 0.00119376)
(0.0568995 -0.00328045 0.0014001)
(0.0937133 -0.00852466 0.00219368)
(0.10332 -0.00959066 0.00229021)
(0.105823 -0.0108495 0.00247865)
(0.10757 -0.0102921 0.00235139)
(0.109816 -0.0106275 0.00215602)
(0.112935 -0.00888456 0.00230695)
(0.115508 -0.00824313 0.00203331)
(0.113656 -0.00436118 0.00199154)
(0.0982097 -0.00300147 0.00142591)
(0.0503527 -0.0039686 0.00185108)
(0.0899266 -0.010133 0.00261583)
(0.101943 -0.0122564 0.00265627)
(0.105283 -0.0136745 0.00277276)
(0.107563 -0.0133545 0.00264852)
(0.11045 -0.0136499 0.00242584)
(0.11431 -0.0119318 0.00252324)
(0.117843 -0.0108112 0.00227285)
(0.117144 -0.00634117 0.00224456)
(0.102812 -0.00365856 0.00178072)
(0.0426425 -0.00448177 0.00237911)
(0.0847415 -0.0118042 0.00317517)
(0.0998992 -0.0153603 0.0032066)
(0.10451 -0.0171953 0.00323118)
(0.107434 -0.0172383 0.00309324)
(0.111106 -0.017598 0.00283746)
(0.115954 -0.0160067 0.00286828)
(0.120836 -0.0143949 0.00264336)
(0.12185 -0.00912894 0.0026447)
(0.109116 -0.0046622 0.00231077)
(0.0338419 -0.00458058 0.00281444)
(0.0777414 -0.0132537 0.0037955)
(0.0967042 -0.0186918 0.00395348)
(0.103257 -0.021473 0.00393267)
(0.107034 -0.0221547 0.00375001)
(0.111641 -0.0227812 0.00343928)
(0.117798 -0.021523 0.00339181)
(0.124586 -0.0195203 0.00319235)
(0.128199 -0.0132094 0.0032503)
(0.118051 -0.00620401 0.0030886)
(0.0242168 -0.00393706 0.00283204)
(0.0684067 -0.0139839 0.0042275)
(0.0915783 -0.0218016 0.00487444)
(0.101033 -0.0264239 0.00498877)
(0.106118 -0.0283182 0.0047176)
(0.111844 -0.0296004 0.00429186)
(0.11969 -0.029069 0.00414052)
(0.12916 -0.0270641 0.00397236)
(0.136856 -0.0195629 0.00415297)
(0.130843 -0.00899267 0.00422906)
(0.0152249 -0.00222096 0.00269421)
(0.0569797 -0.0133638 0.00454551)
(0.0836849 -0.0240467 0.00595784)
(0.0969562 -0.031734 0.00643308)
(0.104132 -0.0358994 0.00609041)
(0.111219 -0.0385656 0.00545243)
(0.12106 -0.0394675 0.00512278)
(0.134177 -0.0383895 0.00497933)
(0.148081 -0.0301459 0.00540071)
(0.151708 -0.0133999 0.00587446)
(0.0091411 -0.000888339 0.00242988)
(0.0439939 -0.0112635 0.0050474)
(0.0723146 -0.024305 0.00730615)
(0.0898939 -0.036173 0.00833989)
(0.100416 -0.0444379 0.00794257)
(0.109475 -0.0501246 0.00696018)
(0.121528 -0.0537705 0.00632355)
(0.139397 -0.0555339 0.00615884)
(0.162412 -0.0488589 0.00707614)
(0.183301 -0.0253784 0.00825683)
(0.00624076 -0.00260904 -0.000342277)
(0.0318803 -0.0112605 0.0038688)
(0.058478 -0.0245352 0.00730176)
(0.0786194 -0.0388668 0.00914188)
(0.0926875 -0.0517746 0.00913015)
(0.104597 -0.0628422 0.00796981)
(0.118091 -0.072883 0.00691348)
(0.1421 -0.0804332 0.0066132)
(0.171262 -0.0894104 0.00809957)
(0.249475 -0.0415897 0.0112371)
(0.0959773 -0.0110609 0.00134184)
(0.100954 -0.00146082 0.00121607)
(0.100655 -0.00115947 0.00115455)
(0.100411 -0.000457125 0.00116442)
(0.10037 -0.00011211 0.00116974)
(0.10037 0.00010239 0.00116961)
(0.100412 0.000448698 0.00116407)
(0.100658 0.00115283 0.00115399)
(0.10096 0.00145377 0.00121644)
(0.0959803 0.0111447 0.00134435)
(0.0938135 -0.00563397 0.00192023)
(0.106216 -0.00241444 0.00197768)
(0.103708 -0.00190279 0.00189357)
(0.102527 -0.000794626 0.00190202)
(0.102289 -0.000239969 0.00190744)
(0.10229 0.000212503 0.00190731)
(0.102531 0.000769658 0.0019012)
(0.103714 0.00187227 0.00189162)
(0.106238 0.00234897 0.00197957)
(0.0938022 0.00569686 0.00192225)
(0.0922447 -0.000392471 0.00157085)
(0.108881 -0.00283415 0.00165436)
(0.106136 -0.00161436 0.00159249)
(0.104475 -0.000671346 0.00159753)
(0.104117 -0.000274555 0.00160422)
(0.104123 0.000207877 0.00160232)
(0.104485 0.000609347 0.00159701)
(0.106144 0.00155625 0.00159087)
(0.108874 0.00278342 0.0016565)
(0.0922902 0.000459073 0.00157007)
(0.0907769 0.00230151 0.00107563)
(0.109178 -0.00299654 0.00117513)
(0.10727 -0.00112603 0.00108531)
(0.105616 -0.000525632 0.00109466)
(0.105243 -0.000292581 0.00110492)
(0.105253 0.00018524 0.00110379)
(0.105637 0.000424563 0.00109431)
(0.107295 0.00103671 0.0010844)
(0.109177 0.00292343 0.00117962)
(0.0908733 -0.00227058 0.00107343)
(0.0900479 0.00334285 0.000662112)
(0.108702 -0.00295462 0.00080311)
(0.107817 -0.000707782 0.000645406)
(0.106303 -0.000497361 0.000673262)
(0.105917 -0.000321118 0.000691624)
(0.105931 0.000164723 0.000693623)
(0.106338 0.00035059 0.000672489)
(0.107859 0.000578333 0.000644912)
(0.108745 0.00286696 0.000808294)
(0.0901909 -0.00343181 0.000662398)
(0.0897207 0.00366019 0.000330523)
(0.10834 -0.00284166 0.000526758)
(0.108309 -0.000363612 0.000279716)
(0.106904 -0.000538357 0.000324377)
(0.10647 -0.000337548 0.000344927)
(0.106489 0.000120462 0.000347766)
(0.106958 0.000338992 0.000323175)
(0.108373 0.000188535 0.000276392)
(0.108415 0.00274507 0.000527942)
(0.089957 -0.00383981 0.000342752)
(0.089514 0.00360943 0.000113233)
(0.108024 -0.00274233 0.00031286)
(0.108803 -8.44429e-05 -2.91105e-05)
(0.107492 -0.000604928 3.9476e-05)
(0.107007 -0.0003305 5.32721e-05)
(0.107034 3.69406e-05 5.55824e-05)
(0.107571 0.000340269 3.69812e-05)
(0.108913 -0.000152823 -4.05484e-05)
(0.108138 0.00261644 0.000311903)
(0.0898909 -0.00383628 0.000138971)
(0.0892507 0.00338375 -2.40881e-05)
(0.107767 -0.00266254 0.000147211)
(0.109238 0.000113652 -0.000269486)
(0.10801 -0.000691987 -0.000176248)
(0.107498 -0.000311265 -0.000177458)
(0.107534 -7.9559e-05 -0.000175216)
(0.10812 0.000341475 -0.000181787)
(0.109398 -0.000441224 -0.000295314)
(0.107916 0.00247161 0.000138954)
(0.0898166 -0.00362719 2.88278e-05)
(0.0889146 0.00310685 -0.000117181)
(0.107551 -0.00259301 4.96803e-05)
(0.109607 0.00023491 -0.000445932)
(0.108444 -0.000805482 -0.000331431)
(0.107925 -0.000294776 -0.000349926)
(0.107974 -0.000218804 -0.000350497)
(0.108594 0.000350451 -0.000337568)
(0.109826 -0.00066803 -0.000474442)
(0.107804 0.0023296 1.81771e-05)
(0.0897085 -0.00339146 -6.47586e-05)
(0.0885251 0.00283395 -0.000160428)
(0.107427 -0.00254981 -3.45327e-05)
(0.109932 0.000298292 -0.000581253)
(0.108824 -0.000938066 -0.000445975)
(0.108309 -0.000290031 -0.000481193)
(0.108376 -0.000380012 -0.000483932)
(0.109028 0.0003537 -0.000448495)
(0.110248 -0.000862803 -0.000603793)
(0.107802 0.00217616 -5.8807e-05)
(0.0896101 -0.00318421 -0.000146554)
(0.0880676 0.00258826 -0.000187417)
(0.107365 -0.00253508 -0.000100518)
(0.110241 0.00030853 -0.0006857)
(0.109172 -0.00109343 -0.000530416)
(0.108675 -0.000307787 -0.000583094)
(0.108766 -0.000567538 -0.000588423)
(0.10945 0.000330751 -0.000531111)
(0.110681 -0.00105565 -0.000712748)
(0.107906 0.00202315 -0.000123662)
(0.0895305 -0.00300679 -0.000192326)
(0.0875247 0.00235411 -0.000202875)
(0.107329 -0.00253654 -0.000152908)
(0.110531 0.000268292 -0.000765605)
(0.109495 -0.00127497 -0.000592161)
(0.109027 -0.000359375 -0.000662011)
(0.10915 -0.000784373 -0.000669644)
(0.109867 0.00027443 -0.000591742)
(0.11112 -0.00125213 -0.00080414)
(0.108078 0.00186518 -0.000181097)
(0.0894918 -0.00286927 -0.00021172)
(0.0868755 0.00212228 -0.000208115)
(0.107296 -0.00256865 -0.000197367)
(0.110793 0.000176143 -0.00082776)
(0.109791 -0.0014879 -0.000636067)
(0.109364 -0.000456719 -0.000722221)
(0.109527 -0.00103481 -0.000732456)
(0.110283 0.000175492 -0.000634842)
(0.111572 -0.00145581 -0.000877784)
(0.108305 0.0016911 -0.000227445)
(0.0895089 -0.00276629 -0.000218118)
(0.0861086 0.00187552 -0.000209627)
(0.107235 -0.00263556 -0.000227291)
(0.111012 1.88407e-05 -0.000870419)
(0.110059 -0.00174112 -0.000665228)
(0.109685 -0.00061367 -0.000765958)
(0.109899 -0.00132782 -0.000778801)
(0.110703 2.03599e-05 -0.000663484)
(0.112043 -0.00167608 -0.000933576)
(0.108585 0.00148908 -0.000262348)
(0.0896115 -0.00267385 -0.000220595)
(0.0851832 0.00161077 -0.000207753)
(0.107135 -0.00275241 -0.00024286)
(0.111183 -0.000214035 -0.000896605)
(0.110296 -0.00204909 -0.000682737)
(0.109989 -0.000847082 -0.000795839)
(0.11027 -0.00167658 -0.000812489)
(0.111136 -0.000204319 -0.00068102)
(0.112541 -0.00192691 -0.000974183)
(0.10894 0.00125345 -0.000287333)
(0.0898186 -0.00260104 -0.000221526)
(0.0840592 0.00131794 -0.000198153)
(0.106973 -0.00293534 -0.000243416)
(0.111296 -0.000540958 -0.000905852)
(0.110502 -0.00243094 -0.000689262)
(0.110279 -0.00117777 -0.000811934)
(0.110647 -0.00209841 -0.000834621)
(0.111594 -0.000515234 -0.000688672)
(0.113082 -0.0022247 -0.00100137)
(0.109387 0.000977922 -0.000304893)
(0.0901598 -0.00255314 -0.000215511)
(0.0826756 0.000983883 -0.000176978)
(0.106727 -0.0032007 -0.00022716)
(0.111344 -0.000984918 -0.000896018)
(0.110675 -0.00291031 -0.000684554)
(0.110557 -0.00163195 -0.000813904)
(0.111038 -0.00261624 -0.000845325)
(0.11209 -0.00093484 -0.000686928)
(0.113685 -0.00258975 -0.00101607)
(0.109953 0.000648687 -0.000315472)
(0.0906699 -0.00253287 -0.000200445)
(0.0809586 0.000596495 -0.000139242)
(0.106365 -0.00357366 -0.000189339)
(0.111318 -0.00157641 -0.000863036)
(0.110813 -0.00351771 -0.000666574)
(0.110826 -0.00224255 -0.000799836)
(0.111452 -0.00325995 -0.00084329)
(0.112643 -0.00149255 -0.000675178)
(0.114375 -0.00304689 -0.00101764)
(0.110672 0.000247328 -0.00031822)
(0.0913944 -0.00254548 -0.000174674)
(0.0788233 0.000140023 -7.50905e-05)
(0.105842 -0.00407756 -0.00012293)
(0.111205 -0.00235317 -0.000801669)
(0.110916 -0.0042906 -0.000631481)
(0.111091 -0.00305065 -0.000766757)
(0.111903 -0.00406834 -0.000825686)
(0.113273 -0.00222634 -0.000651591)
(0.115185 -0.00362865 -0.00100407)
(0.111592 -0.000250268 -0.000311355)
(0.0923948 -0.00259674 -0.000135341)
(0.0761656 -0.000396935 2.8451e-05)
(0.1051 -0.00473937 -1.80575e-05)
(0.110996 -0.00336043 -0.000703308)
(0.110982 -0.00527487 -0.000571733)
(0.111356 -0.00410635 -0.000708651)
(0.112403 -0.0050915 -0.000787689)
(0.114007 -0.0031866 -0.000612197)
(0.116156 -0.00437825 -0.000971533)
(0.112777 -0.000876011 -0.000291631)
(0.0937518 -0.00269857 -7.73558e-05)
(0.0728765 -0.00101426 0.000190251)
(0.104054 -0.0055907 0.000140623)
(0.110674 -0.00465154 -0.000554849)
(0.111008 -0.00652765 -0.000476778)
(0.111625 -0.00547044 -0.000616778)
(0.112969 -0.00639398 -0.000720843)
(0.114879 -0.00443992 -0.000550663)
(0.117342 -0.00535473 -0.000914472)
(0.114309 -0.00167486 -0.000253585)
(0.095578 -0.00286476 6.48324e-06)
(0.0688555 -0.0017061 0.000434907)
(0.102581 -0.00664761 0.000375673)
(0.110221 -0.00628091 -0.000340405)
(0.110991 -0.00811693 -0.000331234)
(0.111899 -0.00721679 -0.000478468)
(0.113613 -0.00805976 -0.000613646)
(0.115926 -0.00607579 -0.000457055)
(0.11881 -0.00664195 -0.000823548)
(0.1163 -0.00271068 -0.000188937)
(0.0980245 -0.00312266 0.000126924)
(0.0640146 -0.00244317 0.000787904)
(0.100535 -0.00790311 0.000714025)
(0.109596 -0.00829754 -3.3363e-05)
(0.110924 -0.0101176 -0.000114599)
(0.112173 -0.00943223 -0.000276075)
(0.114343 -0.0101975 -0.000450139)
(0.117186 -0.00821705 -0.000317712)
(0.120649 -0.00836255 -0.000686058)
(0.118908 -0.00407932 -8.53916e-05)
(0.101309 -0.00350905 0.000298464)
(0.0583127 -0.00315605 0.0012575)
(0.0977344 -0.00933942 0.00118716)
(0.108724 -0.0107245 0.000401118)
(0.110785 -0.0126117 0.000204875)
(0.112429 -0.0122181 1.34861e-05)
(0.115149 -0.0129495 -0.000208537)