/*--------------------------------*- C++ -*----------------------------------*\
| =========                 |                                                 |
| \\      /  F ield         | OpenFOAM: The Open Source CFD Toolbox           |
|  \\    /   O peration     | Version:  4.1                                   |
|   \\  /    A nd           | Web:      www.OpenFOAM.org                      |
|    \\/     M anipulation  |                                                 |
\*---------------------------------------------------------------------------*/
FoamFile
{
    version     2.0;
    format      ascii;
    class       volScalarField;
    location    "1000";
    object      epsilon;
}
// * * * * * * * * * * * * * * * * * * * * * * * * * * * * * * * * * * * * * //

dimensions      [0 2 -3 0 0 0 0];

internalField   nonuniform List<scalar> 
12000
(
0.319848
0.312245
0.310898
0.310598
0.310526
0.310527
0.310603
0.310905
0.312082
0.319656
0.0651277
0.0636846
0.0626845
0.0622503
0.0621177
0.0621175
0.0622526
0.0627035
0.0637223
0.0652067
0.0176477
0.0176655
0.0173318
0.0171076
0.0170245
0.0170227
0.0171087
0.0173365
0.0176618
0.0176492
0.00615008
0.00626747
0.00620823
0.00611041
0.00606578
0.00606467
0.00611065
0.0062109
0.00626748
0.00614937
0.00263753
0.00273772
0.00272469
0.00267702
0.00265226
0.00265272
0.00267834
0.00272855
0.00274032
0.00263624
0.00132544
0.00139699
0.00139741
0.00137312
0.0013583
0.0013582
0.00137395
0.00139998
0.00139595
0.00132635
0.000750681
0.000800828
0.000805802
0.00079208
0.0007827
0.000783005
0.000792862
0.000807088
0.00080204
0.000753264
0.00046576
0.00050148
0.000507882
0.000499828
0.000493664
0.000493611
0.000500298
0.000509004
0.000502981
0.000468803
0.000310194
0.000336857
0.000343287
0.000337762
0.000333489
0.000333863
0.000338532
0.000344055
0.000337851
0.000313238
0.0002184
0.000239183
0.000244613
0.000241178
0.00023808
0.000238138
0.000241565
0.000245808
0.000240073
0.00022138
0.000160729
0.000177582
0.000182526
0.000179804
0.000177666
0.000177995
0.00018033
0.000183432
0.000178326
0.000163697
0.000122587
0.000136649
0.000140971
0.000139246
0.000137453
0.000137307
0.000139439
0.00014137
0.000137283
0.000125623
9.62624e-05
0.000108274
0.000112026
0.000110692
0.000109553
0.000109696
0.000111224
0.000113036
0.000109043
9.94523e-05
7.74177e-05
8.7901e-05
9.15461e-05
9.06401e-05
8.96857e-05
8.97869e-05
9.09936e-05
9.23745e-05
8.88729e-05
8.08265e-05
6.34985e-05
7.2852e-05
7.62667e-05
7.55003e-05
7.47346e-05
7.49814e-05
7.598e-05
7.72823e-05
7.40921e-05
6.71927e-05
5.29257e-05
6.14556e-05
6.47441e-05
6.42632e-05
6.37819e-05
6.40606e-05
6.49321e-05
6.58585e-05
6.29875e-05
5.69581e-05
4.46827e-05
5.26222e-05
5.57356e-05
5.54717e-05
5.51636e-05
5.5479e-05
5.62689e-05
5.71406e-05
5.45274e-05
4.91556e-05
3.80917e-05
4.56282e-05
4.86669e-05
4.85713e-05
4.84471e-05
4.87343e-05
4.94411e-05
5.02426e-05
4.79307e-05
4.30772e-05
3.26785e-05
3.99324e-05
4.29241e-05
4.29257e-05
4.29323e-05
4.32949e-05
4.40082e-05
4.48399e-05
4.27793e-05
3.83495e-05
2.81033e-05
3.5191e-05
3.82024e-05
3.83948e-05
3.85179e-05
3.89333e-05
3.96017e-05
4.0416e-05
3.8626e-05
3.45645e-05
2.41126e-05
3.10995e-05
3.41923e-05
3.45496e-05
3.47611e-05
3.52239e-05
3.59878e-05
3.69126e-05
3.53811e-05
3.16422e-05
2.04954e-05
2.74431e-05
3.07628e-05
3.13514e-05
3.16919e-05
3.22673e-05
3.29809e-05
3.39066e-05
3.26746e-05
2.92543e-05
1.70882e-05
2.40134e-05
2.76745e-05
2.85015e-05
2.89168e-05
2.95729e-05
3.04764e-05
3.15821e-05
3.06447e-05
2.75234e-05
1.37107e-05
2.06409e-05
2.48896e-05
2.60893e-05
2.67128e-05
2.74846e-05
2.83488e-05
2.95145e-05
2.88834e-05
2.60987e-05
1.02445e-05
1.71047e-05
2.20743e-05
2.37095e-05
2.44558e-05
2.5371e-05
2.65238e-05
2.79903e-05
2.76971e-05
2.52848e-05
6.42278e-06
1.32741e-05
1.92293e-05
2.16031e-05
2.27313e-05
2.37508e-05
2.48392e-05
2.64983e-05
2.66104e-05
2.46283e-05
2.65297e-06
8.91393e-06
1.5749e-05
1.89911e-05
2.0505e-05
2.18936e-05
2.3419e-05
2.55304e-05
2.60164e-05
2.48008e-05
1.43553e-06
4.89978e-06
1.17746e-05
1.62526e-05
1.87014e-05
2.01855e-05
2.1672e-05
2.42081e-05
2.56355e-05
2.50447e-05
2.04209e-06
3.68673e-06
6.28241e-06
1.07166e-05
1.52107e-05
1.82048e-05
2.00534e-05
2.32215e-05
2.54161e-05
2.60963e-05
3.95243e-06
5.90622e-06
6.45939e-06
6.87561e-06
9.01709e-06
1.25982e-05
1.68959e-05
2.07694e-05
2.49954e-05
2.78574e-05
0.312244
1.02331
1.00596
1.00535
1.00527
1.00527
1.00533
1.00589
1.02359
0.312496
0.0636816
0.199499
0.128953
0.12873
0.128708
0.128866
0.129148
0.130212
0.1997
0.0641489
0.0176626
0.0419208
0.0333927
0.0375692
0.0390972
0.0344853
0.0371624
0.0366642
0.0414739
0.0178154
0.00626498
0.00814786
0.0138152
0.0162057
0.0170119
0.0143555
0.0159642
0.0152314
0.00811978
0.00633073
0.00273566
0.00213529
0.00607726
0.00615963
0.00647841
0.00631121
0.00611252
0.00673791
0.00200993
0.00276126
0.00139531
0.000749113
0.0027435
0.00529249
0.00563791
0.00289638
0.00520048
0.00307615
0.000621135
0.00140375
0.000799365
0.000331852
0.00117259
0.00365997
0.0039728
0.00127444
0.0035952
0.00126818
0.00025592
0.000805225
0.000500174
0.000179697
0.000644269
0.00192348
0.00220828
0.000708812
0.0018907
0.0008689
0.000107096
0.000504857
0.000335635
0.000119952
0.000544799
0.000809437
0.000995605
0.000370994
0.000797593
0.000488169
7.69877e-05
0.000339087
0.000237997
8.64234e-05
0.000353989
0.000362036
0.00045761
0.00016628
0.000356555
0.00018048
6.3627e-05
0.000240931
0.000176402
6.7959e-05
0.000193799
0.000170864
0.000172255
0.000165267
0.000169121
0.000175588
5.37325e-05
0.000179136
0.000135438
5.38948e-05
8.77643e-05
0.000156591
0.000166434
0.000118009
0.000164949
0.000120171
4.5143e-05
0.000138167
0.000107057
4.39532e-05
4.48092e-05
0.000105556
0.000118866
6.7987e-05
0.000117263
8.8765e-05
3.81949e-05
0.000109919
8.66301e-05
3.64399e-05
2.56849e-05
5.81937e-05
8.96362e-05
2.84979e-05
8.71921e-05
6.39464e-05
3.24234e-05
8.98061e-05
7.15201e-05
3.09508e-05
1.59522e-05
3.0126e-05
6.7466e-05
2.7177e-05
6.52954e-05
3.78932e-05
2.7812e-05
7.49857e-05
6.0043e-05
2.6822e-05
1.34738e-05
1.61941e-05
3.48648e-05
1.57741e-05
5.1273e-05
1.81527e-05
2.40581e-05
6.38533e-05
5.11183e-05
2.37953e-05
1.19802e-05
1.30555e-05
2.87166e-05
1.46576e-05
4.02347e-05
1.66687e-05
2.10855e-05
5.52588e-05
4.40177e-05
2.15198e-05
1.06756e-05
1.09291e-05
2.08462e-05
1.19769e-05
3.17642e-05
1.37048e-05
1.87196e-05
4.8607e-05
3.82119e-05
1.98045e-05
9.80295e-06
9.41448e-06
1.60898e-05
1.05235e-05
2.51167e-05
1.18406e-05
1.67494e-05
4.32851e-05
3.3358e-05
1.85447e-05
9.26347e-06
7.4467e-06
1.29953e-05
8.05375e-06
1.58883e-05
9.24702e-06
1.50974e-05
3.90718e-05
2.91758e-05
1.76751e-05
8.81033e-06
6.83578e-06
9.35233e-06
6.93537e-06
9.95461e-06
8.16289e-06
1.36476e-05
3.56299e-05
2.54624e-05
1.70397e-05
8.64477e-06
5.82851e-06
7.22613e-06
6.13696e-06
8.4119e-06
7.47704e-06
1.23779e-05
3.28155e-05
2.20663e-05
1.69037e-05
8.63309e-06
6.1996e-06
6.11178e-06
5.96837e-06
7.39783e-06
6.99351e-06
1.12759e-05
3.05533e-05
1.88371e-05
1.68837e-05
9.18236e-06
6.25128e-06
5.90888e-06
5.83385e-06
6.5603e-06
6.63865e-06
1.02636e-05
2.84708e-05
1.56667e-05
1.69772e-05
9.8704e-06
6.56972e-06
5.95589e-06
5.73424e-06
6.19476e-06
6.43812e-06
9.49394e-06
2.69741e-05
1.24142e-05
1.72293e-05
1.10775e-05
7.12304e-06
6.27543e-06
5.87515e-06
6.20072e-06
6.49014e-06
8.69449e-06
2.51197e-05
9.06038e-06
1.8331e-05
1.28137e-05
8.16736e-06
6.85188e-06
6.22609e-06
6.38759e-06
6.62905e-06
8.75417e-06
2.40293e-05
5.83024e-06
1.9806e-05
1.51334e-05
9.55104e-06
7.8013e-06
6.88005e-06
7.0417e-06
7.53835e-06
8.50195e-06
2.24227e-05
3.97221e-06
2.29129e-05
1.95058e-05
1.24437e-05
9.56757e-06
8.08439e-06
8.02294e-06
8.33955e-06
1.26087e-05
2.18927e-05
4.10633e-06
2.59608e-05
2.59678e-05
1.77486e-05
1.17747e-05
9.67512e-06
9.73709e-06
1.0487e-05
1.75548e-05
2.09001e-05
0.310896
1.00592
0.977063
0.976868
0.976592
0.97681
0.976699
0.97713
1.00599
0.311412
0.0626832
0.129943
0.139936
0.131895
0.1358
0.130987
0.135451
0.137886
0.130803
0.0632136
0.0173307
0.0369685
0.0508433
0.0153212
0.0558824
0.00906872
0.0479758
0.0539247
0.036493
0.01748
0.00620636
0.0158397
0.0326681
1.51703e-06
0.0128324
1.09551e-06
0.0170977
0.0224991
0.0152015
0.00627074
0.00272245
0.00608091
0.00892451
7.74288e-07
0.00400837
6.86593e-07
0.0159741
0.0124845
0.00670939
0.00275394
0.00139583
0.00494218
0.00378255
5.97785e-07
0.00488613
3.33663e-07
0.0058035
0.00586021
0.00303265
0.00141098
0.000804266
0.00338289
0.00108631
5.17613e-07
0.00396101
3.2496e-07
0.00456028
0.00311031
0.00121061
0.000813371
0.000506449
0.00178713
0.000575645
4.06829e-07
0.000674214
2.56231e-07
0.000809456
0.00102004
0.000885731
0.000512538
0.000341933
0.000753899
0.000190212
3.35669e-07
1.78416e-05
2.15585e-07
7.40626e-05
0.00112647
0.000679548
0.000346158
0.000243384
0.000337972
0.000220659
1.78272e-07
2.81676e-06
1.16019e-07
4.29414e-06
0.000825035
0.000441791
0.000246346
0.000181342
0.000312239
0.000113773
7.98232e-08
4.50366e-07
5.72746e-08
1.87779e-06
0.000651013
0.000239394
0.0001837
0.000139459
0.000211218
6.52889e-05
4.85919e-08
3.50389e-07
5.11188e-08
1.00434e-06
0.000484873
0.000105645
0.000141871
0.000110996
0.000115771
3.25505e-05
4.48524e-08
2.69957e-07
1.14094e-07
2.78382e-06
0.000360179
5.4178e-05
0.000112807
9.01877e-05
5.25977e-05
2.14643e-05
4.04256e-08
3.33634e-07
8.21166e-08
1.37718e-06
0.000190805
2.59402e-05
9.2347e-05
7.4899e-05
2.83642e-05
1.3336e-05
1.1364e-07
2.49136e-07
8.09672e-08
1.15765e-06
7.8919e-05
2.3593e-05
7.70814e-05
6.32167e-05
1.58596e-05
6.48889e-06
3.1728e-07
4.87491e-07
2.26301e-07
7.09271e-07
3.67732e-05
1.87355e-05
6.57254e-05
5.40991e-05
1.47428e-05
3.61753e-06
2.91267e-07
4.95643e-07
2.10588e-07
4.54611e-07
1.74742e-05
1.55054e-05
5.68781e-05
4.68314e-05
1.18322e-05
2.17359e-06
2.97397e-07
5.20748e-07
1.58224e-07
3.79549e-07
8.25592e-06
1.14998e-05
5.01326e-05
4.08784e-05
1.0428e-05
1.43323e-06
2.34976e-07
3.1765e-07
1.3922e-07
3.17591e-07
3.12315e-06
9.05375e-06
4.45016e-05
3.58822e-05
1.0101e-05
1.27332e-06
2.7829e-07
2.06736e-07
1.76926e-07
3.27848e-07
3.06568e-06
7.9262e-06
4.02545e-05
3.15768e-05
1.02729e-05
1.39533e-06
2.66649e-07
1.72887e-07
1.87971e-07
3.76584e-07
2.47375e-06
6.8208e-06
3.64158e-05
2.78039e-05
1.06515e-05
1.63806e-06
2.90031e-07
1.56218e-07
1.91304e-07
2.92445e-07
1.66515e-06
5.98791e-06
3.36147e-05
2.44155e-05
1.12085e-05
1.98917e-06
3.93206e-07
1.79905e-07
1.89024e-07
2.61971e-07
1.01606e-06
5.24381e-06
3.07114e-05
2.12868e-05
1.1843e-05
2.46755e-06
5.55739e-07
2.1232e-07
2.0848e-07
2.64757e-07
6.60715e-07
4.5126e-06
2.87526e-05
1.83616e-05
1.30324e-05
2.93132e-06
7.46213e-07
3.24483e-07
2.50925e-07
2.91254e-07
5.71151e-07
3.87073e-06
2.62722e-05
1.55244e-05
1.37253e-05
4.01369e-06
9.48578e-07
4.71241e-07
3.19179e-07
3.4311e-07
5.52295e-07
3.20777e-06
2.4727e-05
1.27329e-05
1.41647e-05
5.54947e-06
1.48683e-06
6.71851e-07
4.33333e-07
4.3907e-07
5.47393e-07
2.69578e-06
2.21536e-05
1.00146e-05
1.49327e-05
7.6267e-06
2.11312e-06
9.80176e-07
5.99355e-07
5.46595e-07
5.9424e-07
2.18114e-06
2.05291e-05
7.49772e-06
1.61573e-05
9.94526e-06
3.46036e-06
1.3917e-06
8.18871e-07
7.25109e-07
8.32453e-07
2.11603e-06
1.68679e-05
5.8147e-06
1.78254e-05
1.36746e-05
5.4928e-06
2.48662e-06
1.34304e-06
1.03896e-06
1.11243e-06
2.91347e-06
1.46037e-05
0.310597
1.00536
0.976744
0.976419
0.976334
0.976343
0.976081
0.976868
1.00544
0.311126
0.0622477
0.128671
0.134636
0.12803
0.127792
0.127664
0.138247
0.131716
0.129429
0.0627674
0.0171057
0.0398054
0.036488
0.0479875
0.0481226
0.0485658
0.0266993
0.012491
0.0367602
0.0172469
0.00610687
0.0168927
0.00295234
0.0264581
0.0267955
0.0246091
1.8935e-05
8.86369e-07
0.0153448
0.00616986
0.00267524
0.00757818
0.00206239
9.25537e-05
3.84057e-05
0.00401754
1.15707e-08
3.52659e-07
0.00693904
0.00270695
0.00137063
0.00305616
0.000177291
7.46279e-07
1.94081e-07
3.83796e-08
3.25308e-09
4.85813e-07
0.00274474
0.00138692
0.000789532
0.00221468
1.2418e-05
9.43476e-09
1.47138e-05
1.21912e-09
4.38781e-08
8.96425e-07
0.00217663
0.000799835
0.000497812
0.00128665
7.70686e-06
1.43778e-10
8.18545e-06
3.22433e-09
2.1387e-08
2.90406e-06
0.00146638
0.000504536
0.000335818
0.000618243
2.73681e-06
2.682e-10
1.46518e-06
3.78518e-09
9.74812e-10
5.47449e-06
0.00105618
0.000340978
0.000239506
0.000275519
2.15853e-06
1.95806e-09
3.23021e-07
2.15903e-09
2.72159e-10
4.77878e-06
0.000671671
0.000242911
0.00017798
0.000133723
5.7961e-07
1.10226e-09
6.03003e-08
1.1605e-09
3.385e-10
2.12228e-06
0.000361935
0.000181491
0.000136938
0.000136343
4.07085e-06
9.0679e-10
9.91154e-10
6.1633e-10
6.11787e-10
4.00967e-06
0.000155302
0.000140758
0.000108749
9.87313e-05
3.84385e-06
8.44291e-10
1.94088e-10
2.98694e-10
1.89412e-09
1.91331e-06
7.87931e-05
0.000112251
8.86447e-05
5.70108e-05
3.86646e-06
3.11982e-09
4.08323e-11
1.20918e-10
2.05759e-09
2.0709e-06
3.59727e-05
9.22093e-05
7.35972e-05
2.46208e-05
2.21206e-06
2.39664e-08
1.95269e-10
1.19046e-10
8.56642e-09
1.65931e-06
3.06034e-05
7.71661e-05
6.22711e-05
2.41754e-05
1.18738e-06
2.17321e-08
3.42731e-10
1.00874e-10
5.1427e-09
1.3462e-06
2.35053e-05
6.5912e-05
5.33062e-05
1.65539e-05
9.32654e-07
1.2997e-08
1.01382e-09
9.85505e-11
3.58396e-09
6.97373e-07
1.88294e-05
5.708e-05
4.6163e-05
1.1472e-05
7.17072e-07
3.00315e-08
2.05167e-09
1.40199e-10
2.8732e-09
6.73651e-07
1.27167e-05
5.03557e-05
4.02875e-05
1.05424e-05
6.83414e-07
2.52276e-08
1.80746e-09
1.45964e-10
2.99002e-09
4.55176e-07
9.74355e-06
4.46566e-05
3.53553e-05
1.0173e-05
8.12187e-07
3.308e-08
1.59814e-09
8.17722e-10
2.9249e-09
3.95738e-07
7.99506e-06
4.04469e-05
3.11117e-05
9.67995e-06
1.00319e-06
5.15207e-08
2.48349e-09
8.22998e-10
3.57476e-09
3.36468e-07
6.49638e-06
3.65273e-05
2.74075e-05
9.86572e-06
1.25127e-06
8.68375e-08
3.94779e-09
1.08191e-09
3.58031e-09
2.53883e-07
5.60767e-06
3.38308e-05
2.40923e-05
1.04332e-05
1.5352e-06
1.38627e-07
8.58416e-09
1.54713e-09
3.94154e-09
1.91732e-07
4.81187e-06
3.08314e-05
2.10429e-05
1.11206e-05
1.96714e-06
2.18602e-07
1.7742e-08
2.80307e-09
4.46099e-09
1.73209e-07
4.17051e-06
2.90079e-05
1.82278e-05
1.21434e-05
2.42024e-06
3.5331e-07
3.6543e-08
4.67432e-09
5.80858e-09
1.44041e-07
3.45226e-06
2.63993e-05
1.55328e-05
1.2953e-05
3.23871e-06
5.24593e-07
7.40185e-08
1.14571e-08
8.44307e-09
1.14824e-07
2.88026e-06
2.4934e-05
1.29374e-05
1.32334e-05
4.70122e-06
8.76215e-07
1.43559e-07
2.26043e-08
1.11256e-08
9.0158e-08
2.2112e-06
2.22347e-05
1.04367e-05
1.36369e-05
6.31185e-06
1.41878e-06
2.9066e-07
5.84109e-08
2.28632e-08
6.47175e-08
1.77023e-06
2.04507e-05
8.06104e-06
1.41414e-05
7.91324e-06
2.10045e-06
5.16726e-07
1.19903e-07
3.43029e-08
6.60949e-08
1.24217e-06
1.67555e-05
5.93643e-06
1.48047e-05
9.99429e-06
3.25447e-06
9.24194e-07
2.58814e-07
9.37561e-08
7.84831e-08
1.29634e-06
1.35261e-05
0.310524
1.00527
0.976826
0.976133
0.975842
0.975892
0.976055
0.976829
1.00537
0.311052
0.0621144
0.128779
0.129119
0.133263
0.139813
0.138213
0.136043
0.13037
0.129154
0.0626319
0.0170213
0.039298
0.0611295
0.0515903
0.0165054
0.0285914
0.036732
0.00728847
0.0359262
0.0171606
0.00606222
0.017126
0.000152165
0.0255976
0.00391767
0.00345183
0.0173645
7.54833e-07
0.015369
0.00612468
0.00265021
0.00654145
1.10698e-06
0.00537399
1.43652e-05
9.70171e-07
6.19823e-05
4.26634e-07
0.00586929
0.00268198
0.00135582
0.00559806
7.06833e-06
5.08003e-07
1.99403e-07
1.17664e-11
6.32842e-08
3.22221e-07
0.00496577
0.00137207
0.000780548
0.00387812
1.93165e-06
6.97133e-10
4.44493e-09
1.43542e-12
2.64303e-10
1.85057e-07
0.0034269
0.00079015
0.000491702
0.00204078
7.0611e-07
4.52834e-10
1.42716e-10
3.70898e-13
3.00069e-10
1.09681e-07
0.00180559
0.000498215
0.000331642
0.000857497
1.96561e-07
2.35311e-10
2.51062e-11
8.26838e-14
4.28314e-11
6.14683e-08
0.000758594
0.000336572
0.00023632
0.000387539
2.51115e-07
4.09673e-10
6.42507e-13
3.48495e-14
2.77098e-11
3.90421e-08
0.00035419
0.000240257
0.000175906
0.000177116
9.76902e-07
2.66715e-10
1.02934e-12
2.33985e-14
1.9486e-11
2.02776e-08
0.000138009
0.000179319
0.000135585
0.00017357
1.31708e-06
3.97577e-10
1.34233e-12
1.71978e-14
7.20166e-12
2.79899e-08
0.000120403
0.000139051
0.00010766
0.000122657
2.64391e-06
4.19089e-09
1.54365e-12
2.33477e-14
1.41717e-11
4.4968e-08
8.29899e-05
0.000110853
8.76326e-05
9.08101e-05
2.36352e-06
2.0108e-07
2.57055e-12
5.23296e-14
3.35334e-11
6.27376e-08
4.40317e-05
9.09583e-05
7.27117e-05
6.83603e-05
2.58919e-06
4.10238e-08
5.96138e-11
2.58018e-14
4.52394e-11
4.40842e-08
2.8388e-05
7.58382e-05
6.15853e-05
5.36394e-05
1.63287e-06
3.4248e-08
3.06759e-10
5.14593e-11
1.38271e-10
6.7809e-08
2.5699e-05
6.47058e-05
5.27587e-05
3.34814e-05
1.06326e-06
2.00998e-08
5.68301e-10
1.25439e-11
1.11846e-10
4.33678e-08
1.38623e-05
5.5952e-05
4.5718e-05
1.92156e-05
7.82958e-07
3.03358e-08
9.05496e-10
2.16471e-11
1.58689e-10
5.42416e-08
1.23695e-05
4.92621e-05
3.99226e-05
1.27967e-05
6.71713e-07
2.54848e-08
9.36281e-10
3.14204e-11
2.90867e-10
5.68444e-08
9.74261e-06
4.36826e-05
3.50573e-05
1.04987e-05
6.93895e-07
2.73241e-08
5.81436e-10
3.30089e-11
2.16583e-10
4.17739e-08
8.01076e-06
3.95318e-05
3.08886e-05
9.96165e-06
8.74192e-07
4.24547e-08
1.74394e-09
3.26506e-11
3.22693e-10
4.73352e-08
6.06342e-06
3.57016e-05
2.72297e-05
9.99688e-06
1.10333e-06
6.51852e-08
2.20557e-09
1.12408e-10
7.13049e-10
1.01749e-07
4.43879e-06
3.30501e-05
2.3955e-05
1.03509e-05
1.42358e-06
1.17107e-07
7.61867e-09
3.24826e-10
4.90948e-10
6.00665e-08
4.08356e-06
3.01365e-05
2.09278e-05
1.09066e-05
1.80933e-06
1.82813e-07
1.24108e-08
7.01807e-10
6.4933e-10
9.52158e-08
3.63298e-06
2.84015e-05
1.81311e-05
1.18794e-05
2.23764e-06
2.92164e-07
3.23305e-08
3.10629e-09
8.67248e-10
1.01565e-07
3.07456e-06
2.58606e-05
1.54399e-05
1.27265e-05
2.97437e-06
4.43029e-07
5.28046e-08
5.01416e-09
1.72502e-09
8.69503e-08
2.6214e-06
2.44097e-05
1.28485e-05
1.30522e-05
4.45274e-06
7.19572e-07
1.18557e-07
1.87551e-08
1.3325e-09
6.68017e-08
2.02488e-06
2.18652e-05
1.02918e-05
1.34591e-05
6.0594e-06
1.2506e-06
2.13171e-07
3.32685e-08
8.2567e-09
4.52814e-08
1.64551e-06
1.97277e-05
7.89825e-06
1.40979e-05
7.78347e-06
1.92926e-06
4.23806e-07
9.96644e-08
1.24071e-08
3.56704e-08
1.113e-06
1.6438e-05
5.60229e-06
1.47309e-05
9.7964e-06
3.09385e-06
8.11542e-07
2.04744e-07
5.84123e-08
3.82027e-08
1.12872e-06
1.27482e-05
0.310525
1.00528
0.976824
0.976328
0.975915
0.976128
0.976338
0.976833
1.00536
0.311051
0.0621137
0.12857
0.130666
0.127795
0.137388
0.131457
0.127713
0.130259
0.12936
0.0626316
0.0170203
0.0380671
0.00551654
0.0584571
0.0288159
0.0388733
0.0558833
0.00719074
0.0368804
0.0171607
0.00606306
0.0163633
5.61336e-07
0.000961128
0.00336207
0.000615126
0.0092121
8.04773e-07
0.0157695
0.00612428
0.00265005
0.00625824
3.54523e-07
3.52615e-07
0.000271423
6.60609e-09
0.00217863
3.58555e-07
0.00601357
0.00268182
0.00135607
0.00528713
5.08776e-07
1.5511e-10
3.26105e-06
1.32357e-10
3.06241e-05
2.76084e-07
0.00511245
0.00137204
0.000780653
0.00369504
2.90878e-07
4.94442e-10
1.20281e-08
5.05224e-09
3.60166e-08
1.93941e-07
0.0035848
0.000790189
0.000491755
0.00195366
1.79366e-07
3.77888e-10
8.87625e-11
2.29182e-09
2.19327e-11
1.19347e-07
0.00189278
0.000498204
0.000331755
0.000816792
1.28045e-07
5.09231e-10
5.37109e-13
4.105e-09
2.69735e-11
6.50314e-08
0.000798209
0.000336568
0.000236401
0.00038053
2.07679e-07
3.35271e-10
2.57635e-13
7.38732e-10
3.74058e-11
4.2555e-08
0.000357673
0.000240258
0.000176085
0.000145849
4.57188e-07
1.92594e-10
1.97119e-13
5.05198e-10
1.54815e-11
2.33429e-08
0.000168106
0.000179323
0.00013575
0.000136357
9.63679e-07
2.26963e-10
1.57096e-12
4.42552e-10
5.86488e-12
1.45481e-08
6.57789e-05
0.000138984
0.000107757
9.52828e-05
5.05308e-07
1.06827e-09
9.78911e-13
1.47891e-10
8.23394e-12
3.45239e-08
6.06418e-05
0.000110872
8.77339e-05
5.43298e-05
1.47308e-06
1.09772e-09
2.45714e-12
3.24053e-10
1.49372e-11
4.99986e-09
4.39916e-05
9.09395e-05
7.27502e-05
2.29624e-05
8.87256e-07
1.80115e-08
5.56668e-11
1.34463e-11
3.55916e-11
4.58844e-08
2.51221e-05
7.57912e-05
6.15467e-05
2.22527e-05
6.26116e-07
1.24487e-08
9.06752e-11
5.9032e-11
7.17578e-11
3.0982e-08
1.2875e-05
6.46788e-05
5.26685e-05
1.49356e-05
4.76284e-07
8.60384e-09
9.29703e-11
1.48213e-11
6.06833e-11
1.92002e-08
6.88581e-06
5.59266e-05
4.56532e-05
1.0354e-05
5.09729e-07
1.31834e-08
2.5264e-10
2.79528e-11
8.07788e-11
2.71335e-08
6.49744e-06
4.92329e-05
3.99065e-05
9.97461e-06
5.53353e-07
1.60922e-08
3.52364e-10
3.01715e-11
1.01147e-10
3.20037e-08
5.39095e-06
4.36484e-05
3.5063e-05
9.80873e-06
6.64585e-07
2.18667e-08
4.95702e-10
5.75366e-11
4.409e-10
2.62903e-08
4.67278e-06
3.94727e-05
3.08947e-05
9.48438e-06
8.98103e-07
4.45306e-08
1.35649e-09
4.53771e-11
1.85349e-10
3.26944e-08
4.39299e-06
3.56434e-05
2.7217e-05
9.64669e-06
1.09705e-06
6.75481e-08
2.64573e-09
1.82749e-10
2.68161e-10
7.03529e-08
3.15966e-06
3.29627e-05
2.39371e-05
1.02539e-05
1.42659e-06
1.18564e-07
6.80208e-09
6.7615e-11
3.6981e-10
4.05725e-08
3.37933e-06
3.00929e-05
2.09089e-05
1.08737e-05
1.81602e-06
1.85843e-07
1.36325e-08
1.39446e-09
5.6669e-10
4.41398e-08
3.31396e-06
2.82823e-05
1.80895e-05
1.17423e-05
2.22087e-06
2.90882e-07
2.77836e-08
1.86174e-09
8.24077e-10
7.20251e-08
2.91286e-06
2.58542e-05
1.5375e-05
1.25697e-05
2.903e-06
4.37342e-07
5.34304e-08
7.77363e-09
1.70827e-09
7.25099e-08
2.53479e-06
2.42721e-05
1.27714e-05
1.28677e-05
4.30879e-06
6.94674e-07
9.63964e-08
1.1589e-08
3.00553e-09
6.00903e-08
1.96688e-06
2.17996e-05
1.02181e-05
1.32253e-05
5.85412e-06
1.19548e-06
2.00454e-07
4.10926e-08
7.11154e-09
4.08464e-08
1.62939e-06
1.99743e-05
7.83153e-06
1.39064e-05
7.5844e-06
1.84294e-06
3.72404e-07
6.92755e-08
1.11565e-08
3.34148e-08
1.06091e-06
1.61164e-05
5.5673e-06
1.44879e-05
9.64013e-06
3.02128e-06
7.66765e-07
1.98308e-07
5.5771e-08
3.62361e-08
1.20743e-06
1.37877e-05
0.310601
1.00534
0.976895
0.976274
0.976129
0.976364
0.976207
0.976867
1.00542
0.311124
0.062248
0.129168
0.131132
0.133034
0.133345
0.127069
0.133973
0.131604
0.129736
0.0627655
0.0171032
0.0344354
0.00788487
0.0205266
0.0521021
0.0476637
0.0498896
0.0156691
0.0349133
0.0172442
0.00610665
0.0142567
9.32568e-07
6.02797e-05
0.0228741
0.0262413
0.0274535
1.25419e-06
0.0144419
0.00616844
0.00267534
0.00627937
4.52631e-07
5.64118e-08
0.0107067
0.000122863
8.12491e-06
3.9252e-07
0.00635483
0.00270685
0.00137106
0.00278528
3.47771e-07
1.71289e-09
0.00357733
1.2806e-07
3.14797e-11
4.64989e-07
0.00283534
0.00138667
0.000790071
0.00125742
2.85919e-07
2.20318e-09
2.12969e-05
1.43697e-05
3.93113e-12
4.54847e-07
0.00126832
0.000799914
0.000497901
0.000593051
1.53431e-07
3.57436e-09
3.74299e-08
8.0932e-07
2.36243e-11
9.47842e-07
0.000585164
0.000504329
0.000336103
0.000279597
1.2516e-07
3.47201e-09
1.09576e-09
2.7476e-06
3.82652e-10
1.52555e-06
0.00026998
0.00034097
0.000239272
0.000143428
1.00641e-07
2.46335e-09
5.89009e-10
7.8675e-07
2.19545e-09
8.63992e-07
0.000131501
0.000243468
0.000178144
0.00013162
6.95431e-08
2.36132e-09
3.30942e-10
5.50006e-07
1.15439e-09
1.54772e-07
5.27822e-05
0.000181828
0.000136715
8.91213e-05
1.53766e-07
5.04113e-09
1.15775e-09
3.33113e-07
2.49911e-10
5.94703e-07
5.50208e-05
0.000140644
0.00010904
6.56337e-05
1.55809e-07
4.37675e-08
3.60206e-09
1.95925e-07
4.20736e-09
2.17818e-07
3.99801e-05
0.000112291
8.86946e-05
4.78473e-05
8.77465e-07
2.24121e-07
6.71983e-09
1.35167e-07
1.53431e-09
1.77284e-07
3.0933e-05
9.20418e-05
7.374e-05
2.96057e-05
8.75743e-07
3.62603e-07
9.25638e-10
2.64027e-08
6.27862e-09
9.39152e-08
2.42182e-05
7.68083e-05
6.22758e-05
1.61639e-05
9.41838e-07
9.36224e-08
6.54958e-09
3.8026e-08
2.23675e-09
1.28946e-07
1.98302e-05
6.57095e-05
5.32824e-05
1.47651e-05
6.28299e-07
3.24731e-08
2.80328e-09
7.61183e-09
1.28591e-09
1.00223e-07
1.64775e-05
5.6841e-05
4.61164e-05
1.18e-05
5.69944e-07
5.56163e-08
5.0775e-09
9.64669e-09
1.08099e-09
6.95577e-08
1.32737e-05
5.00884e-05
4.02651e-05
1.03811e-05
5.36968e-07
4.0244e-08
3.4797e-09
1.01818e-08
1.77457e-09
1.03627e-07
1.0965e-05
4.44293e-05
3.53456e-05
1.00993e-05
6.22263e-07
4.90543e-08
5.94896e-09
8.52182e-09
2.14772e-09
6.09272e-08
7.9013e-06
4.02102e-05
3.1113e-05
1.01172e-05
8.62222e-07
4.94905e-08
6.6858e-09
7.44099e-09
3.30278e-09
6.11129e-08
5.96323e-06
3.62993e-05
2.73932e-05
1.02866e-05
1.13564e-06
7.55432e-08
9.11141e-09
7.78214e-09
5.07892e-09
1.18752e-07
5.26403e-06
3.36049e-05
2.40636e-05
1.08057e-05
1.50137e-06
1.31482e-07
1.43363e-08
8.56713e-09
6.96026e-09
7.92523e-08
4.6109e-06
3.06819e-05
2.09937e-05
1.13081e-05
1.94358e-06
2.10571e-07
2.39648e-08
1.01304e-08
9.08498e-09
1.12429e-07
4.02149e-06
2.88751e-05
1.81503e-05
1.21619e-05
2.36498e-06
3.37646e-07
4.58036e-08
1.30747e-08
1.14975e-08
1.17878e-07
3.36715e-06
2.63281e-05
1.5441e-05
1.29025e-05
3.13877e-06
4.95788e-07
7.96841e-08
1.99046e-08
1.51442e-08
1.04201e-07
2.83062e-06
2.486e-05
1.28498e-05
1.31433e-05
4.57757e-06
8.01234e-07
1.39328e-07
3.18158e-08
1.99552e-08
8.64853e-08
2.18743e-06
2.21841e-05
1.03554e-05
1.35232e-05
6.16129e-06
1.30366e-06
2.64346e-07
6.12705e-08
3.21136e-08
6.82169e-08
1.76047e-06
2.04733e-05
8.00191e-06
1.40612e-05
7.79565e-06
2.00447e-06
4.66448e-07
1.13697e-07
4.52584e-08
7.25576e-08
1.23742e-06
1.67393e-05
5.91036e-06
1.47013e-05
9.8366e-06
3.14043e-06
8.68542e-07
2.45818e-07
8.93544e-08
9.12912e-08
1.22678e-06
1.35424e-05
0.310903
1.0059
0.977129
0.976745
0.976815
0.976611
0.976913
0.977141
1.006
0.311416
0.0626995
0.129863
0.137918
0.13393
0.130759
0.135258
0.130675
0.137518
0.130284
0.0632177
0.0173339
0.0404927
0.0536987
0.0525008
0.00678955
0.0522809
0.00727408
0.053459
0.0368997
0.0174786
0.00620886
0.0169543
0.0233154
0.0228806
8.4108e-07
0.0231284
7.78102e-07
0.022829
0.0152864
0.00627108
0.00272574
0.00767574
0.0108667
0.0109223
5.52573e-07
0.0095655
6.15394e-07
0.0111233
0.00676025
0.00275714
0.00139724
0.00297504
0.00336533
0.0030103
2.26568e-06
0.00437256
2.93055e-07
0.00427568
0.00307909
0.001413
0.000804604
0.00239907
0.00210599
0.00222817
5.92949e-06
0.00235724
1.59745e-07
0.00154805
0.00126738
0.000814604
0.000506603
0.00164852
0.000923071
0.00159649
3.41594e-06
0.000790629
1.50468e-07
0.000867533
0.000867333
0.000513337
0.000342071
0.00120995
0.000410927
0.00128505
3.74546e-06
0.000818052
1.56219e-07
0.000362062
0.00047196
0.000346415
0.000243298
0.000794011
0.000187545
0.000714344
2.59464e-06
0.00039355
5.31532e-07
0.000196009
0.000210704
0.00024658
0.000181054
0.000392857
9.44832e-05
0.000492984
2.34971e-06
0.000306048
4.03396e-07
9.61714e-05
9.48279e-05
0.000183453
0.00013974
0.000295784
6.30717e-05
0.000354034
1.99595e-06
0.000237461
3.30676e-07
6.22938e-05
9.6132e-05
0.000141377
0.000110828
0.000213163
3.2757e-05
0.000276725
4.35108e-06
0.000125706
2.30551e-06
3.99495e-05
7.06279e-05
0.000112528
9.02379e-05
0.000110267
1.94162e-05
0.000185809
3.98198e-06
5.1802e-05
1.89299e-06
2.79323e-05
3.76608e-05
9.19873e-05
7.48494e-05
7.65537e-05
1.10017e-05
9.48955e-05
2.1003e-06
2.47529e-05
1.85924e-06
1.49679e-05
3.03533e-05
7.66364e-05
6.32096e-05
6.54039e-05
5.30048e-06
4.05972e-05
2.50421e-06
1.17614e-05
1.0803e-06
5.97691e-06
1.72248e-05
6.54128e-05
5.41174e-05
5.01566e-05
2.99821e-06
1.83547e-05
2.21392e-06
5.51023e-06
6.15992e-07
3.72996e-06
1.5559e-05
5.65153e-05
4.68285e-05
3.96134e-05
1.95787e-06
1.76825e-05
2.02118e-06
4.95559e-06
3.73119e-07
3.26199e-06
1.27418e-05
4.97544e-05
4.08372e-05
2.41032e-05
1.50509e-06
1.4059e-05
1.2796e-06
3.93924e-06
4.04218e-07
2.62423e-06
1.07566e-05
4.41483e-05
3.58056e-05
2.06392e-05
1.36268e-06
7.56728e-06
1.38737e-06
2.21693e-06
3.71364e-07
1.5002e-06
8.12107e-06
3.9919e-05
3.1492e-05
1.79911e-05
1.4745e-06
3.37396e-06
1.2448e-06
1.12183e-06
3.90773e-07
8.21851e-07
6.38207e-06
3.6096e-05
2.76987e-05
1.45177e-05
1.63202e-06
1.76812e-06
8.31294e-07
7.02814e-07
3.81481e-07
5.81455e-07
5.71926e-06
3.3354e-05
2.42937e-05
1.27462e-05
1.84523e-06
1.12736e-06
5.83293e-07
5.29579e-07
4.05432e-07
5.08489e-07
4.99439e-06
3.05292e-05
2.11242e-05
1.23559e-05
2.21377e-06
9.32203e-07
5.36758e-07
4.72967e-07
4.40781e-07
4.93057e-07
4.34163e-06
2.86523e-05
1.81783e-05
1.31052e-05
2.71362e-06
9.23015e-07
5.63329e-07
4.75393e-07
4.85181e-07
5.0177e-07
3.77964e-06
2.62237e-05
1.52984e-05
1.35915e-05
3.68005e-06
1.12543e-06
6.32122e-07
5.17961e-07
5.33897e-07
5.36377e-07
3.15826e-06
2.47407e-05
1.24999e-05
1.40528e-05
5.31072e-06
1.49494e-06
7.76791e-07
5.95763e-07
6.039e-07
6.03486e-07
2.72316e-06
2.22383e-05
9.73996e-06
1.47857e-05
7.45903e-06
2.20271e-06
1.03161e-06
7.27517e-07
7.15891e-07
6.90876e-07
2.16939e-06
2.05165e-05
7.24341e-06
1.62508e-05
9.91127e-06
3.45714e-06
1.48057e-06
9.44455e-07
8.81841e-07
9.20457e-07
2.31953e-06
1.70067e-05
5.66418e-06
1.80529e-05
1.39172e-05
5.70045e-06
2.69687e-06
1.49871e-06
1.22223e-06
1.18523e-06
2.97566e-06
1.49547e-05
0.312081
1.02359
1.00601
1.00548
1.00537
1.00537
1.00543
1.006
1.02366
0.312568
0.0637189
0.19983
0.130545
0.128669
0.129206
0.129236
0.129613
0.130374
0.199725
0.0642341
0.0176575
0.0413969
0.0351725
0.0315354
0.0356981
0.0372177
0.0364974
0.0368917
0.0411129
0.0178432
0.00626318
0.00811028
0.0145237
0.0129971
0.015225
0.0160064
0.0152579
0.0152875
0.00783288
0.0063414
0.00273649
0.00199458
0.00639707
0.00574598
0.00581643
0.00612641
0.00672202
0.00678265
0.00199326
0.00276715
0.0013927
0.000608109
0.00286131
0.00265363
0.00485991
0.00523982
0.00301233
0.00306568
0.000670507
0.00140691
0.000799171
0.000249823
0.00120741
0.0010683
0.00332939
0.00368322
0.00129612
0.00130677
0.000285845
0.000807006
0.000500508
0.00010459
0.00070412
0.000771975
0.00175248
0.00194827
0.000725221
0.000761535
0.000132244
0.000505559
0.000335355
7.48873e-05
0.000539698
0.000628561
0.00073559
0.000815611
0.000374918
0.000414689
8.96062e-05
0.000339628
0.000237702
6.37927e-05
0.000332999
0.000400944
0.000338739
0.000382442
0.000176893
0.000157587
6.99968e-05
0.000241346
0.000175982
5.47966e-05
0.000181641
0.000221601
0.00014089
0.000144836
7.01129e-05
0.000145324
5.61211e-05
0.000179387
0.000134941
4.70343e-05
8.13562e-05
8.70897e-05
0.000127475
0.000140766
7.2327e-05
9.9306e-05
4.61374e-05
0.000138219
0.000106587
4.03036e-05
4.21052e-05
7.33236e-05
8.61696e-05
0.00010046
5.2646e-05
5.63306e-05
3.8486e-05
0.000109863
8.62554e-05
3.45629e-05
2.24656e-05
4.10017e-05
4.8592e-05
5.27897e-05