/*--------------------------------*- C++ -*----------------------------------*\
| =========                 |                                                 |
| \\      /  F ield         | OpenFOAM: The Open Source CFD Toolbox           |
|  \\    /   O peration     | Version:  4.1                                   |
|   \\  /    A nd           | Web:      www.OpenFOAM.org                      |
|    \\/     M anipulation  |                                                 |
\*---------------------------------------------------------------------------*/
FoamFile
{
    version     2.0;
    format      ascii;
    class       volScalarField;
    location    "1000";
    object      k;
}
// * * * * * * * * * * * * * * * * * * * * * * * * * * * * * * * * * * * * * //

dimensions      [0 2 -2 0 0 0 0];

internalField   nonuniform List<scalar> 
12000
(
0.116773
0.114915
0.114585
0.114511
0.114493
0.114493
0.114512
0.114586
0.114875
0.116727
0.0404165
0.0398172
0.0393992
0.0392171
0.0391614
0.0391613
0.0392181
0.0394072
0.0398329
0.0404491
0.0169241
0.0169355
0.0167216
0.016577
0.0165233
0.0165222
0.0165777
0.0167246
0.0169332
0.0169251
0.00838112
0.00848743
0.00843386
0.00834503
0.00830435
0.00830334
0.00834525
0.00843628
0.00848744
0.00838047
0.00476628
0.00488623
0.00487072
0.00481374
0.00478401
0.00478456
0.00481532
0.00487531
0.00488932
0.00476472
0.00301269
0.00312016
0.00312078
0.00308451
0.00306228
0.00306213
0.00308576
0.00312461
0.0031186
0.00301407
0.0020623
0.00215315
0.00216206
0.00213744
0.00212053
0.00212108
0.00213885
0.00216436
0.00215532
0.00206703
0.00150022
0.00157598
0.00158936
0.00157252
0.00155956
0.00155945
0.0015735
0.0015917
0.00157912
0.00150675
0.00114412
0.00120877
0.00122411
0.00121094
0.0012007
0.0012016
0.00121278
0.00122593
0.00121115
0.00115159
0.00090549
0.000962058
0.000976566
0.0009674
0.000959098
0.000959254
0.000968435
0.000979744
0.000964443
0.000913706
0.000738091
0.000788825
0.000803399
0.000795391
0.000789074
0.000790047
0.000796943
0.000806055
0.000791026
0.000747152
0.000616137
0.000662399
0.000676292
0.000670765
0.000664994
0.000664522
0.000671383
0.000677567
0.000664445
0.000626268
0.000524428
0.000567192
0.00058022
0.000575608
0.000571652
0.000572147
0.000577448
0.000583704
0.000569877
0.00053595
0.000453532
0.000493602
0.000507156
0.000503804
0.000500261
0.000500637
0.000505113
0.000510211
0.000497234
0.000466749
0.000397396
0.000435521
0.000449026
0.000446013
0.000442992
0.000443967
0.0004479
0.000453003
0.000440449
0.000412663
0.000351959
0.000388826
0.000402576
0.00040058
0.000398578
0.000399738
0.000403355
0.000407183
0.000395261
0.000369617
0.000314394
0.000350613
0.000364309
0.000363158
0.000361812
0.00036319
0.000366629
0.000370406
0.000359025
0.00033504
0.000282662
0.000318814
0.000332816
0.00033238
0.000331813
0.000333123
0.000336336
0.000339961
0.000329451
0.000306817
0.000255205
0.000291697
0.00030609
0.000306098
0.000306129
0.00030785
0.000311222
0.000315131
0.000305401
0.000283936
0.000230791
0.000268124
0.00028321
0.00028416
0.000284767
0.000286811
0.000290084
0.000294047
0.000285299
0.000264933
0.00020839
0.000246917
0.000263027
0.000264856
0.000265936
0.000268291
0.000272156
0.000276799
0.000269089
0.000249781
0.00018699
0.000227162
0.000245131
0.000248248
0.000250042
0.00025306
0.000256777
0.00026156
0.000255185
0.000237051
0.000165645
0.000207818
0.000228438
0.000232966
0.000235224
0.000238768
0.000243607
0.000249464
0.000244503
0.000227605
0.000143028
0.000187874
0.000212843
0.000219629
0.000223114
0.000227391
0.000232133
0.000238454
0.000235043
0.000219682
0.000117772
0.000165752
0.000196475
0.000206061
0.000210363
0.000215579
0.000222061
0.000230172
0.000228562
0.000215091
8.62707e-05
0.000139976
0.000179208
0.000193668
0.000200354
0.0002063
0.000212556
0.000221919
0.000222544
0.000211351
4.78486e-05
0.00010734
0.000156873
0.000177725
0.000187049
0.000195401
0.000204374
0.000216481
0.00021922
0.000212336
3.17728e-05
7.20276e-05
0.000129225
0.000160201
0.000175913
0.000185101
0.00019408
0.00020894
0.000217075
0.000213727
4.01881e-05
5.95857e-05
8.50091e-05
0.000121363
0.000153278
0.000172785
0.000184292
0.000203224
0.000215834
0.000219668
6.24153e-05
8.15807e-05
8.65983e-05
9.02794e-05
0.000108166
0.000135183
0.0001644
0.000188653
0.000213446
0.000229443
0.114915
0.0308533
0.0280468
0.028029
0.0280296
0.0280298
0.0280289
0.0280458
0.0308553
0.114977
0.039816
0.00528643
0.00275515
0.00274227
0.00274409
0.00274101
0.00274531
0.00277068
0.00528087
0.0400105
0.0169337
0.00215859
0.000760036
0.000768594
0.000781552
0.000756191
0.000772432
0.00078208
0.00214264
0.0170312
0.00848518
0.00119081
0.000467156
0.000510008
0.00051112
0.000483776
0.000493997
0.000486871
0.00118628
0.00854444
0.00488378
0.00090888
0.000328574
0.000336324
0.000333867
0.000332521
0.00032918
0.000331121
0.000844512
0.00491421
0.00311765
0.000677254
0.000254291
0.000289915
0.000293564
0.000269724
0.000280723
0.000266145
0.000607346
0.00313022
0.00215053
0.000537173
0.000194611
0.000220456
0.000226041
0.000210268
0.000212695
0.000170626
0.00048192
0.00216102
0.00157324
0.000463376
0.000152862
0.000146252
0.000162812
0.000171967
0.000136163
0.000146925
0.0003639
0.00158305
0.00120585
0.000423105
0.00013387
9.04705e-05
9.11096e-05
0.000134672
0.00010682
0.000110638
0.00033955
0.0012141
0.000958877
0.000386297
0.000106843
6.56099e-05
8.3767e-05
0.000111037
7.29981e-05
8.82403e-05
0.000320101
0.000966741
0.000785325
0.000351294
9.75088e-05
4.20118e-05
6.75574e-05
9.48251e-05
7.13058e-05
8.55472e-05
0.000291983
0.00079342
0.000658479
0.000316832
7.96058e-05
5.19654e-05
6.23095e-05
8.07956e-05
6.94714e-05
7.29437e-05
0.000268373
0.000667296
0.000562935
0.000285644
8.12783e-05
4.73347e-05
5.30186e-05
6.82638e-05
6.01057e-05
6.71077e-05
0.000246502
0.000572924
0.000488833
0.00025938
8.09918e-05
4.25128e-05
4.73278e-05
5.70365e-05
5.19989e-05
5.8619e-05
0.00022765
0.000500709
0.000430196
0.000239542
8.16749e-05
4.5374e-05
5.04159e-05
5.84358e-05
5.56286e-05
5.98853e-05
0.000212568
0.000443984
0.000382845
0.00022438
8.97939e-05
4.59044e-05
5.03366e-05
5.80493e-05
5.70353e-05
6.14224e-05
0.000200615
0.000398875
0.0003439
0.000213537
8.81954e-05
4.69519e-05
5.03487e-05
5.81891e-05
5.87921e-05
6.44939e-05
0.000190733
0.000362228
0.000311267
0.000205198
8.99597e-05
5.83286e-05
5.29335e-05
5.76589e-05
5.91714e-05
6.44705e-05
0.000181834
0.000332543
0.000283257
0.000198387
9.62857e-05
5.69363e-05
5.00396e-05
5.85028e-05
6.09532e-05
6.63719e-05
0.000172665
0.000307804
0.000258731
0.000193863
0.000101714
6.04637e-05
5.22798e-05
6.42552e-05
6.66731e-05
7.38901e-05
0.000164128
0.00028749
0.000236626
0.000189744
0.000104122
6.42588e-05
6.35698e-05
7.30158e-05
7.78631e-05
8.41516e-05
0.000154791
0.000270349
0.000216096
0.000187488
0.000107253
6.76523e-05
6.15644e-05
6.84184e-05
7.25008e-05
7.897e-05
0.000145896
0.000255918
0.000196427
0.000186205
0.000111508
7.57073e-05
6.37552e-05
6.90249e-05
7.76167e-05
8.24176e-05
0.000136634
0.000244017
0.000176763
0.000185795
0.000119511
8.42749e-05
7.17192e-05
7.21761e-05
7.56076e-05
8.37497e-05
0.00012774
0.000232799
0.000156327
0.000187684
0.000126897
8.98543e-05
7.85146e-05
7.56789e-05
7.71318e-05
8.31597e-05
0.000120002
0.000224567
0.000133863
0.000191436
0.000141361
9.70642e-05
8.4831e-05
7.92053e-05
7.9925e-05
8.434e-05
0.000111848
0.000214153
0.000108512
0.00020081
0.000154509
0.000107305
9.08158e-05
8.38753e-05
8.47651e-05
8.80944e-05
0.00010966
0.00020791
8.08796e-05
0.000214967
0.000179894
0.000122482
0.000103141
9.15822e-05
9.13098e-05
9.36579e-05
0.000114825
0.000198536
6.26233e-05
0.000236189
0.000215094
0.000147314
0.000118533
0.000103394
0.000102555
0.000106731
0.000120008
0.000195395
6.40251e-05
0.0002633
0.000263073
0.00019843
0.000139629
0.000115952
0.000115075
0.000119348
0.000175179
0.000189444
0.114584
0.0280469
0.0252017
0.0251936
0.0251908
0.0251929
0.0251922
0.0252019
0.0280471
0.114711
0.0393987
0.00276889
0.0011877
0.00109779
0.00115989
0.00108809
0.0011486
0.00117702
0.00277089
0.0396206
0.0167209
0.000783387
4.16047e-05
6.15434e-06
3.36044e-05
4.49911e-06
2.90913e-05
4.80669e-05
0.000780319
0.0168167
0.00843217
0.000486893
8.85413e-07
1.2755e-09
3.2049e-07
6.06688e-10
1.05609e-06
2.07025e-06
0.000481004
0.00849038
0.00486805
0.000332548
2.79863e-07
1.59814e-09
8.34281e-07
1.69313e-09
3.49896e-07
1.36723e-06
0.000328816
0.00490551
0.00311844
0.000270705
3.78595e-07
1.88165e-09
5.39869e-07
2.07365e-09
1.177e-07
9.772e-07
0.000260871
0.00314095
0.00215931
0.000205706
2.3289e-07
2.03297e-09
7.35292e-07
4.03753e-09
5.54003e-07
5.15155e-07
0.000169912
0.00217557
0.00158637
0.000132413
3.06209e-07
1.80309e-09
5.80096e-08
4.51964e-09
6.84016e-08
7.9758e-07
0.000136952
0.00159906
0.00122089
0.000117518
5.35394e-07
1.56432e-09
1.54588e-08
4.06485e-09
2.77315e-08
8.88959e-07
0.000119161
0.00123092
0.000973291
7.91978e-05
1.38508e-06
1.86596e-09
2.37464e-08
4.94884e-09
2.75784e-08
9.03986e-07
9.75573e-05
0.000981171
0.00079992
9.05675e-05
1.01275e-06
2.88874e-09
2.92945e-08
7.70184e-09
7.4916e-08
9.015e-07
8.42988e-05
0.00080684
0.000671447
7.8526e-05
2.01531e-06
7.77796e-09
4.33181e-08
2.28824e-08
1.76062e-07
8.10562e-07
7.53388e-05
0.000679168
0.000576658
7.01188e-05
1.77568e-06
1.18034e-08
5.28679e-08
5.28179e-08
5.12336e-07
7.38699e-07
7.16894e-05
0.000582915
0.000502126
6.24538e-05
2.10371e-06
1.79882e-08
6.2482e-08
5.88165e-08
3.9306e-07
8.13673e-07
6.92962e-05
0.000510109
0.000443641
7.29095e-05
2.61256e-06
1.16002e-07
2.49987e-07
2.83054e-07
6.00436e-07
1.02259e-06
7.34838e-05
0.000452218
0.000396219
7.82965e-05
4.79769e-06
2.09747e-07
1.87811e-07
3.04201e-07
7.31112e-07
1.52126e-06
6.9406e-05
0.000406634
0.000357143
8.34661e-05
7.99963e-06
4.39544e-07
5.30412e-07
4.48818e-07
9.57742e-07
1.83824e-06
7.02666e-05
0.00036927
0.000324394
9.07161e-05
1.07699e-05
7.48251e-07
6.63602e-07
6.51283e-07
1.37121e-06
2.68162e-06
7.99395e-05
0.000339465
0.000296286
9.90045e-05
1.39483e-05
1.24336e-06
7.01275e-07
1.05746e-06
1.93899e-06
3.38427e-06
7.22323e-05
0.000313544
0.000271623
0.000105518
1.69761e-05
1.84529e-06
8.14301e-07
1.61976e-06
2.24976e-06
4.28561e-06
7.71293e-05
0.000293263
0.000249437
0.000112356
2.00717e-05
2.60224e-06
1.08616e-06
1.92682e-06
2.88042e-06
5.01328e-06
7.6332e-05
0.00027431
0.000229149
0.000122316
2.40263e-05
3.57841e-06
1.55205e-06
2.36608e-06
3.55108e-06
5.70111e-06
7.19228e-05
0.000260056
0.000210132
0.000131068
2.88679e-05
5.7339e-06
2.19539e-06
2.77942e-06
3.99118e-06
6.22211e-06
6.60057e-05
0.000244858
0.000191773
0.000142056
3.40295e-05
7.4861e-06
3.00319e-06
3.54858e-06
4.43716e-06
6.48242e-06
5.87392e-05
0.000234333
0.000173776
0.000152209
4.58516e-05
1.1326e-05
4.80471e-06
4.23143e-06
5.2898e-06
6.87254e-06
5.16696e-05
0.000220654
0.000155378
0.000157073
6.16152e-05
1.54402e-05
6.64345e-06
5.47809e-06
6.08012e-06
7.34696e-06
4.37159e-05
0.000211915
0.000136145
0.00016318
8.17824e-05
2.35186e-05
9.77056e-06
6.87833e-06
7.55064e-06
8.19797e-06
3.71869e-05
0.000196945
0.000116004
0.000172856
0.000103162
3.23581e-05
1.42002e-05
9.32699e-06
8.91212e-06
9.61319e-06
3.08539e-05
0.000187195
9.56461e-05
0.000185071
0.00013186
4.87639e-05
2.03649e-05
1.28073e-05
1.19711e-05
1.12545e-05
2.72873e-05
0.000164218
8.07358e-05
0.000203867
0.000167963
7.66624e-05
3.45106e-05
2e-05
1.54495e-05
1.6961e-05
3.3728e-05
0.000149173
0.114511
0.0280296
0.0251926
0.0251826
0.0251816
0.0251817
0.0251813
0.0251935
0.02803
0.114641
0.039216
0.002745
0.0011313
0.00109547
0.00109357
0.00109336
0.00114474
0.00109562
0.00274317
0.039434
0.0165759
0.000784114
3.10691e-05
1.49721e-05
1.68423e-05
1.56546e-05
1.98388e-05
5.25842e-06
0.000769211
0.0166669
0.00834181
0.000506975
3.89277e-07
7.90429e-08
9.08784e-08
8.05881e-08
2.78972e-09
5.6791e-10
0.00048965
0.00839907
0.0048116
0.000358431
5.9348e-07
7.54192e-13
5.20239e-13
3.37684e-11
3.85591e-13
3.09368e-09
0.000328167
0.00484955
0.00308079
0.000259504
6.18178e-08
1.39254e-12
1.60124e-13
4.31526e-13
4.67786e-13
7.62171e-09
0.000274896
0.00310514
0.00213285
0.000156586
4.08081e-08
1.581e-12
1.79117e-11
1.47894e-12
1.3626e-11
1.5149e-08
0.000178358
0.00215137
0.00156828
0.000156243
1.43514e-07
5.51983e-13
8.75581e-12
2.36922e-12
1.30407e-11
5.45454e-08
0.000135946
0.00158238
0.00120629
0.000111348
8.69085e-08
1.94942e-12
4.08012e-12
3.20794e-12
8.84177e-12
1.038e-07
0.000105308
0.00121861
0.000962924
9.59474e-05
1.20144e-07
5.40105e-12
1.0259e-11
3.36646e-12
1.98178e-11
2.0092e-07
9.23363e-05
0.000972028
0.000790002
7.32717e-05
2.12466e-07
2.37466e-11
1.02105e-11
3.35669e-12
5.48499e-11
3.32747e-07
7.87657e-05
0.00080036
0.000663332
9.12068e-05
9.07173e-07
6.78797e-11
3.11663e-12
3.57643e-12
1.1223e-10
3.23409e-07
7.11997e-05
0.000675612
0.000568849
8.13608e-05
5.69992e-07
1.69164e-10
1.50167e-11
4.72046e-12
3.25236e-10
4.3921e-07
7.09581e-05
0.000580998
0.000496383
7.37033e-05
1.67938e-06
9.63557e-10
6.70958e-12
9.81114e-12
9.03766e-10
4.86391e-07
6.89175e-05
0.000509602
0.000438486
6.78976e-05
1.34333e-06
6.45303e-09
5.80274e-11
2.47546e-11
2.23112e-09
6.98901e-07
6.79545e-05
0.000452549
0.000392258
7.69595e-05
2.17487e-06
3.41475e-08
1.23332e-10
4.23027e-11
4.12434e-09
9.47416e-07
6.63847e-05
0.000407403
0.000353644
8.17684e-05
2.63562e-06
4.79218e-08
5.40142e-10
1.15361e-10
6.82645e-09
1.44125e-06
6.57263e-05
0.000370144
0.0003213
8.47846e-05
4.39831e-06
7.09518e-08
1.79815e-09
2.83598e-10
1.36907e-08
1.53918e-06
7.35836e-05
0.000340471
0.000293424
8.89134e-05
6.58301e-06
1.48843e-07
3.0141e-09
9.34038e-10
2.35033e-08
1.76343e-06
6.48579e-05
0.000314272
0.000268958
9.67195e-05
9.41629e-06
3.25135e-07
5.93799e-09
2.86321e-09
2.3711e-08
2.1399e-06
6.94303e-05
0.000294197
0.000246981
0.000105296
1.28673e-05
6.77272e-07
2.1145e-08
5.70105e-09
3.18139e-08
2.155e-06
7.008e-05
0.00027487
0.000226966
0.00011559
1.66237e-05
1.26312e-06
4.94759e-08
9.71372e-09
4.75671e-08
2.19032e-06
6.73399e-05
0.00026117
0.000208273
0.000123077
2.21705e-05
2.04506e-06
1.37212e-07
2.16401e-08
6.44146e-08
2.14068e-06
6.14057e-05
0.000245495
0.000190306
0.000133432
2.70721e-05
3.56119e-06
2.69874e-07
3.76959e-08
7.76089e-08
2.30009e-06
5.53419e-05
0.000235718
0.00017293
0.00014385
3.71087e-05
5.64705e-06
6.47509e-07
9.78656e-08
1.00106e-07
2.19845e-06
4.71627e-05
0.000221365
0.000155435
0.000148791
5.16384e-05
9.67493e-06
1.21436e-06
1.67171e-07
1.43037e-07
1.84495e-06
4.00338e-05
0.000213096
0.000137598
0.000153349
6.74004e-05
1.65922e-05
2.93815e-06
4.74235e-07
2.29003e-07
1.46373e-06
3.12178e-05
0.000197425
0.00011924
0.000158755
8.56531e-05
2.39051e-05
5.19218e-06
1.09366e-06
3.61127e-07
1.10702e-06
2.47119e-05
0.000186718
0.000100379
0.000165507
0.000104806
3.13757e-05
8.47319e-06
1.96019e-06
7.08572e-07
9.91595e-07
1.68325e-05
0.000163488
8.18587e-05
0.000175769
0.000131307
4.73594e-05
1.44994e-05
4.27601e-06
1.29124e-06
1.21136e-06
1.40143e-05
0.000141742
0.114493
0.0280302
0.025192
0.0251805
0.025179
0.025179
0.0251803
0.0251927
0.0280308
0.114623
0.03916
0.00274611
0.00111756
0.00113377
0.0011456
0.00114597
0.00113879
0.0010843
0.00274099
0.0393772
0.0165212
0.000784687
3.00097e-05
4.60745e-05
1.54005e-05
2.08018e-05
2.57108e-05
3.91689e-06
0.000762554
0.0166113
0.00830111
0.000506793
1.16832e-08
1.38272e-07
5.43024e-08
3.65502e-08
6.15101e-08
4.39102e-10
0.00049869
0.00835803
0.00478154
0.000358353
7.40909e-09
8.23525e-12
6.73354e-12
1.4013e-13
6.48917e-13
1.62281e-09
0.000334471
0.00481968
0.00305856
0.000283832
6.25544e-08
4.40501e-13
1.34324e-14
1e-15
6.51432e-14
3.07569e-09
0.000280613
0.00308295
0.00211664
0.00022639
3.76685e-08
3.07448e-12
2.20982e-15
1e-15
1.79307e-13
3.82458e-09
0.000211553
0.00213397
0.00155543
0.000156465
2.6574e-08
4.08287e-12
1.27791e-15
1e-15
6.62394e-13
3.32125e-09
0.000140282
0.00156913
0.00119627
8.6037e-05
1.67919e-08
4.75471e-12
1.82255e-15
1e-15
1.05892e-12
4.6036e-09
8.4805e-05
0.00120809
0.000954367
8.59727e-05
3.19936e-08
5.80379e-12
1.01656e-15
1e-15
1.70066e-12
4.77441e-09
6.12018e-05
0.000964936
0.000783853
7.6794e-05
1.27677e-07
2.08923e-11
6.2328e-15
1e-15
2.53998e-12
4.70559e-09
3.67159e-05
0.000793959
0.000658954
7.49805e-05
2.19991e-07
7.47397e-11
3.50527e-14
1e-15
2.9781e-12
9.00923e-09
4.04072e-05
0.000670137
0.000565045
6.51564e-05
4.76161e-07
3.49035e-10
6.94554e-14
3.91977e-15
2.88068e-11
2.20039e-08
3.65344e-05
0.000576164
0.000492597
5.63763e-05
2.76485e-07
1.23352e-09
5.50043e-13
1.24615e-14
2.85329e-11
3.88224e-08
3.28217e-05
0.000504982
0.000434962
6.19654e-05
1.1732e-06
5.90166e-09
6.02249e-12
4.03378e-15
1.8786e-10
2.96208e-07
3.54273e-05
0.000447342
0.000389373
6.51249e-05
1.26886e-06
1.42552e-08
5.96763e-11
2.45847e-12
1.34537e-09
2.94515e-07
3.6219e-05
0.000402417
0.000351219
6.79679e-05
1.92563e-06
2.15611e-08
1.96986e-09
4.07394e-10
4.60457e-09
3.9332e-07
3.58577e-05
0.000365251
0.000319232
7.41421e-05
2.59727e-06
5.64691e-08
1.10364e-09
2.66228e-11
3.50093e-09
5.35568e-07
4.42127e-05
0.000335524
0.000291649
8.19638e-05
4.78981e-06
1.207e-07
2.17907e-09
5.0801e-11
4.94783e-09
8.63921e-07
3.8074e-05
0.000309685
0.000267444
9.28661e-05
6.74705e-06
2.28007e-07
2.74862e-09
1.40054e-10
9.2436e-09
8.11345e-07
3.92674e-05
0.000289743
0.000245799
0.000102243
1.02866e-05
5.27885e-07
1.81766e-08
1.1085e-10
8.22411e-09
9.74645e-07
4.99401e-05
0.000270711
0.000225983
0.000112071
1.35202e-05
8.45203e-07
3.10889e-08
1.58677e-09
9.90158e-09
1.7575e-06
4.16931e-05
0.000257136
0.000207481
0.0001199
1.89255e-05
1.67848e-06
1.08477e-07
3.73653e-09
1.28427e-08
1.37811e-06
4.69327e-05
0.000241793
0.000189611
0.000129546
2.33999e-05
2.542e-06
1.87235e-07
1.83298e-08
1.60292e-08
1.75616e-06
4.69632e-05
0.000232421
0.000172318
0.00014071
3.18269e-05
4.23759e-06
4.69826e-07
2.95643e-08
1.94726e-08
1.73096e-06
4.19464e-05
0.000218344
0.000154814
0.000146136
4.59294e-05
6.76613e-06
8.08061e-07
1.13009e-07
2.73209e-08
1.45369e-06
3.65441e-05
0.000210099
0.000136967
0.000151752
6.29259e-05
1.18189e-05
1.86435e-06
2.01807e-07
4.45537e-08
1.09553e-06
2.88457e-05
0.000195232
0.000118134
0.000156704
8.24608e-05
1.81989e-05
3.32493e-06
6.60957e-07
7.23124e-08
7.53746e-07
2.30004e-05
0.000182291
9.90228e-05
0.000166439
0.000103287
2.93561e-05
6.69283e-06
1.19087e-06
3.17696e-07
5.16607e-07
1.56904e-05
0.000161417
7.87574e-05
0.00017227
0.000129559
4.47426e-05
1.28053e-05
3.29612e-06
6.96152e-07
6.50392e-07
1.28399e-05
0.000136253
0.114493
0.0280303
0.0251929
0.0251813
0.0251792
0.02518
0.0251814
0.0251928
0.0280307
0.114622
0.0391597
0.00274343
0.00108401
0.00110208
0.0011404
0.0011095
0.00109998
0.00108365
0.00274358
0.0393771
0.0165206
0.00077399
3.25014e-06
2.45162e-05
2.09461e-05
3.2683e-05
2.78925e-05
3.93782e-06
0.000771418
0.0166113
0.00830187
0.000514757
5.22567e-10
2.28717e-08
3.95316e-08
3.38521e-08
1.68142e-07
4.22912e-10
0.000494896
0.00835766
0.00478135
0.000343409
4.70853e-09
1.7661e-12
3.24744e-12
2.60893e-14
9.53556e-11
1.69197e-09
0.000327219
0.00481949
0.00305893
0.000288596
9.85407e-09
6.57452e-14
8.814e-15
1e-15
9.93767e-13
3.11287e-09
0.000283226
0.0030829
0.00211683
0.000218104
9.48535e-09
1.78056e-12
1e-15
1.38665e-14
7.46072e-14
3.81976e-09
0.000215559
0.00213404
0.00155554
0.000146088
8.73692e-09
2.64317e-12
1e-15
1.60863e-13
7.6727e-14
5.09965e-09
0.00014365
0.00156911
0.00119654
8.73331e-05
1.19901e-08
3.37071e-12
1.84306e-15
1.876e-13
1.38304e-13
4.63957e-09
8.72372e-05
0.00120808
0.000954583
7.28426e-05
2.91757e-08
6.03348e-12
1.61703e-15
2.94942e-13
3.30498e-13
4.24088e-09
6.18052e-05
0.000964939
0.000784384
6.38417e-05
7.9785e-08
1.88893e-11
2.55241e-14
8.26422e-12
5.50102e-13
4.1297e-09
3.8043e-05
0.000793973
0.000659489
6.28359e-05
1.33351e-07
5.28201e-11
3.7176e-14
1.00216e-11
2.16615e-12
7.58419e-09
3.83905e-05
0.000669921
0.000565387
5.60158e-05
2.97419e-07
2.34523e-10
1.37188e-13
1.13329e-11
5.56077e-12
1.7007e-08
3.66742e-05
0.000576232
0.000492977
5.12149e-05
3.59564e-07
9.47593e-10
4.7485e-13
2.09725e-11
2.16272e-10
2.11211e-09
3.20895e-05
0.000504913
0.000435115
5.31189e-05
5.36984e-07
2.86321e-09
1.09922e-11
5.59661e-11
6.24829e-11
6.27146e-08
3.45602e-05
0.000447158
0.000389211
6.2428e-05
1.12595e-06
9.80952e-09
4.61239e-11
1.00693e-10
1.45562e-10
1.6321e-07
3.47328e-05
0.000402306
0.000350818
7.56141e-05
2.04835e-06
2.29811e-08
3.73778e-10
1.39706e-10
1.69723e-09
2.92823e-07
3.48689e-05
0.000365141
0.00031893
8.81037e-05
3.62528e-06
5.85462e-08
7.46604e-10
2.33086e-10
4.05872e-09
3.86932e-07
3.78279e-05
0.000335391
0.00029157
9.52052e-05
5.95231e-06
1.66156e-07
3.19882e-09
2.94815e-10
3.15684e-09
5.07812e-07
3.50551e-05
0.000309523
0.000267473
0.000101941
7.7187e-06
2.91741e-07
6.99884e-09
6.62e-10
4.69382e-09
1.21449e-06
3.60493e-05
0.000289454
0.000245832
0.000108242
1.1144e-05
5.86726e-07
2.15113e-08
7.55172e-10
5.87192e-09
8.13403e-07
4.6758e-05
0.000270417
0.000225913
0.000114409
1.38088e-05
9.06641e-07
3.93291e-08
2.92725e-09
7.52735e-09
9.43904e-07
3.88841e-05
0.000256683
0.000207378
0.000122277
1.90063e-05
1.63643e-06
1.08196e-07
2.56311e-09
1.03868e-08
1.04591e-06
4.46808e-05
0.000241559
0.000189497
0.000129583
2.32452e-05
2.50959e-06
1.93846e-07
1.83413e-08
1.41826e-08
1.35363e-06
4.54579e-05
0.00023177
0.000172054
0.000138619
3.10143e-05
4.14547e-06
4.56749e-07
3.01911e-08
1.65997e-08
1.47645e-06
4.07309e-05
0.000218308
0.00015438
0.000143365
4.24317e-05
6.3993e-06
7.83321e-07
1.16305e-07
2.81528e-08
1.30108e-06
3.57392e-05
0.000209308
0.000136419
0.00014881
5.96078e-05
1.07462e-05
1.67623e-06
1.96851e-07
4.352e-08
9.95486e-07
2.81948e-05
0.000194841
0.00011757
0.000153769
7.88447e-05
1.72663e-05
3.03692e-06
6.25175e-07
7.74711e-08
6.98849e-07
2.25936e-05
0.000183807
9.84643e-05
0.000163806
0.000100806
2.73379e-05
6.07065e-06
1.1163e-06
3.2857e-07
4.98158e-07
1.54585e-05
0.000159304
7.84291e-05
0.000170944
0.000127316
4.42344e-05
1.14063e-05
3.04432e-06
6.36371e-07
6.14305e-07
1.24115e-05
0.000143563
0.114512
0.0280296
0.0251938
0.0251824
0.0251804
0.0251818
0.0251815
0.0251934
0.0280299
0.11464
0.0392161
0.002744
0.00108879
0.0011037
0.00113449
0.00108922
0.00113778
0.00109766
0.00274427
0.0394332
0.0165742
0.000756245
4.11989e-06
2.09064e-05
3.98601e-05
2.15208e-05
4.6501e-05
6.08709e-06
0.000757603
0.0166652
0.00834162
0.000482215
5.17927e-10
7.79215e-09
2.19155e-07
9.18121e-08
1.30406e-07
7.13121e-10
0.00048436
0.00839779
0.00481173
0.000331673
2.82175e-09
3.16383e-12
7.48023e-10
9.19169e-13
2.72275e-13
4.27866e-09
0.000330734
0.00484943
0.00308143
0.000267826
2.49208e-09
3.9696e-13
5.23068e-11
5.06148e-14
1e-15
7.76493e-09
0.000265206
0.00310477
0.00213382
0.000180488
2.94421e-09
2.47783e-12
4.29964e-12
2.79695e-10
1.26454e-14
1.59865e-08
0.000184831
0.00215151
0.00156847
0.000158096
6.00862e-09
1.13281e-11
3.76126e-12
1.07553e-09
3.24376e-13
4.5447e-08
0.000159266
0.00158194
0.00120697
0.000116606
5.62188e-09
1.39344e-11
1.38838e-11
7.41571e-10
4.29464e-12
1.03251e-07
0.000114446
0.00121859
0.000962298
9.10448e-05
6.44795e-09
1.27253e-11
3.53836e-11
7.91968e-10
3.08998e-11
1.08974e-07
6.71069e-05
0.000973515
0.000790489
7.96044e-05
1.47239e-08
2.08728e-11
2.75456e-11
9.51338e-10
7.4364e-11
1.97557e-07
6.59644e-05
0.000801348
0.000662612
7.67977e-05
7.11993e-08
7.66078e-11
1.2403e-10
2.77068e-09
1.00484e-10
2.00516e-07
6.53842e-05
0.000675246
0.000569866
7.3903e-05
1.40903e-07
5.69181e-10
1.2919e-10
3.95315e-09
7.13543e-10
3.91222e-07
5.69455e-05
0.000581138
0.000496569
6.88173e-05
5.65424e-07
3.0426e-09
3.20821e-10
7.53373e-09
3.65599e-10
2.65291e-07
4.99861e-05
0.000508985
0.000439053
6.84736e-05
1.08358e-06
1.94944e-08
1.1055e-09
1.66113e-08
1.2208e-09
4.66301e-07
5.21443e-05
0.000451149
0.000392278
6.86375e-05
1.63903e-06
2.66835e-08
4.71748e-09
2.6339e-08
3.88452e-09
4.75424e-07
5.23111e-05
0.000406568
0.000353539
7.68907e-05
1.95108e-06
5.01086e-08
1.08166e-08
3.7457e-08
5.82773e-09
8.296e-07
5.26263e-05
0.00036911
0.000321084
8.93569e-05
3.82598e-06
7.99761e-08
2.03625e-08
4.91401e-08
1.08564e-08
1.01358e-06
5.15943e-05
0.000339265
0.000293315
9.95531e-05
4.80795e-06
1.53952e-07
3.57719e-08
5.70955e-08
1.8922e-08
1.25875e-06
5.15322e-05
0.000313204
0.000268909
0.00010695
6.75268e-06
2.41385e-07
4.88655e-08
7.86949e-08
3.91669e-08
1.13781e-06
5.96693e-05
0.000293048
0.000246988
0.000112677
1.08927e-05
5.73832e-07
9.10443e-08
9.09869e-08
5.53977e-08
1.29862e-06
5.10597e-05
0.000273725
0.000226887
0.000119453
1.40455e-05
9.69382e-07
1.34655e-07
1.24163e-07
8.01094e-08
1.96842e-06
5.55045e-05
0.000260006
0.000208108
0.000125586
2.01081e-05
1.94172e-06
2.38307e-07
1.31768e-07
1.08953e-07
1.65635e-06
5.58041e-05
0.000244701
0.000190009
0.000133259
2.47333e-05
2.94136e-06
4.07222e-07
1.5203e-07
1.44683e-07
1.97515e-06
5.24439e-05
0.000234998
0.00017244
0.000142416
3.3354e-05
4.91202e-06
7.84802e-07
2.16276e-07
1.98287e-07
1.9161e-06
4.57406e-05
0.000220967
0.000154822
0.000147414
4.76916e-05
7.49459e-06
1.26296e-06
3.06006e-07
2.49979e-07
1.66725e-06
3.92207e-05
0.000212675
0.000136977
0.00015226
6.41113e-05
1.25751e-05
2.51157e-06
5.59268e-07
3.60175e-07
1.31582e-06
3.08108e-05
0.000197125
0.00011862
0.000157845
8.31838e-05
1.91686e-05
4.21251e-06
9.44631e-07
4.90721e-07
1.08048e-06
2.44548e-05
0.000186856
9.98874e-05
0.000164962
0.00010284
2.96012e-05
7.38807e-06
1.92159e-06
7.82325e-07
1.0685e-06
1.68218e-05
0.000163383
8.16188e-05
0.000174667
0.000129062
4.46899e-05
1.29131e-05
3.72596e-06
1.42709e-06
1.31709e-06
1.40603e-05
0.000141855
0.114586
0.0280464
0.0252019
0.0251921
0.0251927
0.0251908
0.0251938
0.0252017
0.0280469
0.114712
0.0394055
0.00277303
0.00117704
0.00114346
0.00108595
0.00115349
0.0010866
0.00117516
0.00276772
0.0396224
0.0167229
0.000799985
4.74275e-05
4.59529e-05
3.62396e-06
3.80951e-05
3.91216e-06
4.93681e-05
0.000782088
0.0168159
0.00843443
0.000515893
1.98917e-06
2.01567e-06
6.33462e-10
1.64853e-06
6.24079e-10
2.31101e-06
0.00048948
0.00849068
0.00487196
0.00034538
9.68556e-07
7.02405e-07
7.56737e-09
2.28852e-07
1.11292e-09
1.10675e-06
0.000333986
0.00490931
0.00312054
0.000278624
7.46064e-07
1.26642e-07
2.35592e-08
1.92133e-07
2.51039e-09
6.32076e-07
0.000265305
0.00314395
0.00215991
0.000179473
1.39037e-06
4.82128e-07
5.39438e-08
5.53995e-07
2.83676e-09
5.17364e-07
0.000204225
0.00217777
0.00158669
0.000145349
1.01381e-06
8.15259e-07
4.775e-08
7.75944e-07
1.0339e-08
9.87423e-07
0.000164713
0.00160072
0.00122121
0.000125944
7.83776e-07
8.69576e-07
5.89572e-08
4.51894e-07
1.73619e-08
5.23746e-07
0.000113607
0.00123153
0.000973063
0.000105727
8.95901e-07
7.62023e-07
7.56893e-08
3.85101e-07
5.08127e-08
4.49878e-07
8.49836e-05
0.000981792
0.000799075
9.48024e-05
9.69413e-07
9.0704e-07
6.4942e-08
3.71451e-07
4.62448e-08
4.75055e-07
5.88108e-05
0.000806116
0.000672349
9.01074e-05
1.08769e-06
1.30624e-06
1.47657e-07
3.86954e-07
1.17177e-07
5.81521e-07
7.92693e-05
0.00067759
0.000576078
8.27603e-05
1.48544e-06
2.15462e-06
1.49589e-07
5.90686e-07
4.10646e-07
6.61366e-07
7.11632e-05
0.000581955
0.000502312
8.03192e-05
2.10144e-06
3.19867e-06
1.96852e-07
6.84813e-07
1.98893e-07
6.09916e-07
6.19572e-05
0.000508784
0.000443445
9.12191e-05
3.06872e-06
3.93828e-06
5.1713e-07
1.74136e-06
7.38395e-07
1.04298e-06
6.40827e-05
0.000450476
0.00039619
9.53419e-05
4.34878e-06
4.63641e-06
8.13075e-07
2.64105e-06
7.40126e-07
1.59184e-06
6.35298e-05
0.000405344
0.000357223
9.69748e-05
6.04657e-06
5.22399e-06
1.63756e-06
3.43978e-06
1.07759e-06
2.27145e-06
6.23591e-05
0.000367699
0.00032438
0.000101221
7.54364e-06
5.78199e-06
2.48799e-06
4.14338e-06
1.51268e-06
2.91877e-06
6.15381e-05
0.000337755
0.000296087
0.000105331
9.84177e-06
6.57183e-06
3.35805e-06
4.93511e-06
2.73574e-06
3.67186e-06
6.12336e-05
0.000311882
0.000271237
0.00011108
1.15076e-05
7.17313e-06
4.19028e-06
5.57165e-06
3.91901e-06
4.45945e-06
6.74232e-05
0.000291631
0.00024899
0.000117135
1.47474e-05
7.95108e-06
5.18532e-06
6.21426e-06
5.10297e-06
5.35069e-06
5.9843e-05
0.000272701
0.000228571
0.000124389
1.75115e-05
8.45272e-06
6.07223e-06
6.68402e-06
6.1517e-06
6.02652e-06
6.32765e-05
0.00025871
0.000209433
0.000130606
2.31438e-05
9.46353e-06
6.84505e-06
7.10209e-06
7.02067e-06
6.74951e-06
6.2227e-05
0.000243889
0.000190796
0.000139283
2.82073e-05
1.05615e-05
7.65064e-06
7.6314e-06
7.77076e-06
7.28517e-06
5.7185e-05
0.000233787
0.000172617
0.000149251
3.97989e-05
1.3108e-05
8.7344e-06
8.1669e-06
8.37704e-06
7.93182e-06
5.17121e-05
0.000220383
0.000153867
0.000153284
5.51762e-05
1.66057e-05
1.00707e-05
8.95157e-06
9.12635e-06
8.65211e-06
4.43201e-05
0.000211993
0.000134478
0.000160951
7.68395e-05
2.45494e-05
1.25991e-05
9.96095e-06
9.99939e-06
9.6616e-06
3.86687e-05
0.000197447
0.000113873
0.000170851
9.94499e-05
3.34866e-05
1.71893e-05
1.19334e-05
1.14935e-05
1.10116e-05
3.17731e-05
0.000187119
9.34709e-05
0.000185506
0.000129653
5.00967e-05
2.40551e-05
1.49574e-05
1.37172e-05
1.33976e-05
2.97574e-05
0.000165118
7.93364e-05
0.000204835
0.000168334
7.72115e-05
3.9494e-05
2.26477e-05
1.75287e-05
1.77544e-05
3.53033e-05
0.000151554
0.114875
0.0308564
0.0280479
0.0280312
0.0280315
0.0280314
0.0280306
0.0280475
0.030857
0.114995
0.0398315
0.00528501
0.00276857
0.00273213
0.00274238
0.00274409
0.00274577
0.00276961
0.00527764
0.0400459
0.0169304
0.00214343
0.0007738
0.000742439
0.000763292
0.000774321
0.000769924
0.000783867
0.00213299
0.0170489
0.00848356
0.00118922
0.000474494
0.000457386
0.000497627
0.000500657
0.000486012
0.000490466
0.00117091
0.00855404
0.00488477
0.00084527
0.000329753
0.000320047
0.000336184
0.000328928
0.000342503
0.000330747
0.000845093
0.00492118
0.00311377
0.000605166
0.0002573
0.000258386
0.00027962
0.00028916
0.000230493
0.000270172
0.000627913
0.00313492
0.00215018
0.000478221
0.000196298
0.000172312
0.000211627
0.000222463
0.000177765
0.000173719
0.000470237
0.00216421
0.00157394
0.000366126
0.000134483
0.000137651
0.000141308
0.00015537
0.00016701
0.000146696
0.000375213
0.00158451
0.00120518
0.000333801
9.18053e-05
0.000117423
8.78506e-05
8.5661e-05
0.000118302
0.000103007
0.000350159
0.00121539
0.000958082
0.000322297
7.93665e-05
9.91034e-05
6.40631e-05
8.23142e-05
7.62583e-05
7.90482e-05
0.000323782
0.00096785
0.000784081
0.0002988