/*--------------------------------*- C++ -*----------------------------------*\
| =========                 |                                                 |
| \\      /  F ield         | OpenFOAM: The Open Source CFD Toolbox           |
|  \\    /   O peration     | Version:  4.1                                   |
|   \\  /    A nd           | Web:      www.OpenFOAM.org                      |
|    \\/     M anipulation  |                                                 |
\*---------------------------------------------------------------------------*/
FoamFile
{
    version     2.0;
    format      ascii;
    class       volScalarField;
    location    "1000";
    object      nut;
}
// * * * * * * * * * * * * * * * * * * * * * * * * * * * * * * * * * * * * * //

dimensions      [0 2 -1 0 0 0 0];

internalField   nonuniform List<scalar> 
12000
(
0.00383695
0.00380631
0.00380082
0.0037996
0.00379931
0.00379931
0.00379962
0.00380085
0.00380564
0.00383618
0.00225732
0.00224053
0.00222874
0.00222358
0.002222
0.002222
0.00222361
0.00222896
0.00224097
0.00225824
0.00146072
0.00146121
0.00145196
0.00144567
0.00144332
0.00144327
0.0014457
0.00145209
0.00146111
0.00146076
0.00102793
0.00103443
0.00103116
0.00102572
0.00102322
0.00102315
0.00102573
0.00103131
0.00103443
0.00102789
0.000775183
0.000784877
0.00078363
0.000779033
0.000776624
0.000776668
0.000779161
0.000783999
0.000785125
0.000775056
0.0006163
0.000627195
0.000627258
0.000623603
0.000621351
0.000621335
0.000623728
0.000627643
0.000627039
0.00061644
0.000509906
0.000521017
0.000522093
0.000519113
0.000517055
0.000517122
0.000519283
0.000522371
0.000521279
0.00051049
0.000434903
0.000445748
0.000447637
0.000445258
0.00044342
0.000443405
0.000445398
0.000447967
0.000446193
0.000435848
0.000379795
0.000390379
0.000392848
0.000390729
0.000389074
0.00038922
0.000391026
0.000393141
0.000390763
0.000381034
0.000337875
0.000348269
0.000350885
0.000349235
0.000347733
0.000347761
0.000349422
0.000351456
0.000348701
0.000339405
0.000305049
0.000315359
0.000318259
0.000316669
0.000315409
0.000315603
0.000316977
0.000318784
0.000315798
0.000306916
0.00027871
0.000288984
0.000291999
0.000290804
0.00028955
0.000289447
0.000290937
0.000292274
0.00028943
0.000280992
0.000257133
0.000267411
0.000270465
0.000269388
0.00026846
0.000268577
0.000269818
0.000271276
0.000268043
0.000259942
0.000239121
0.000249461
0.000252863
0.000252026
0.000251138
0.000251233
0.000252353
0.000253623
0.000250377
0.000242581
0.000223834
0.000234325
0.00023793
0.000237131
0.000236326
0.000236586
0.000237632
0.000238982
0.000235647
0.000228093
0.00021065
0.000221407
0.000225288
0.000224729
0.000224167
0.000224493
0.000225506
0.000226574
0.000223232
0.000215869
0.000199091
0.000210246
0.000214313
0.000213975
0.000213578
0.000213984
0.000214995
0.000216099
0.000212753
0.000205524
0.000188777
0.000200485
0.000204841
0.000204707
0.000204532
0.000204935
0.000205921
0.000207028
0.000203803
0.000196677
0.000179374
0.00019177
0.000196444
0.000196447
0.000196457
0.000197008
0.000198084
0.000199324
0.000196223
0.000189202
0.000170578
0.000183858
0.000188959
0.000189276
0.000189478
0.000190157
0.000191239
0.000192541
0.000189655
0.00018276
0.000162089
0.000176437
0.000182102
0.000182734
0.000183106
0.000183915
0.000185235
0.000186809
0.000184188
0.000177457
0.000153541
0.000169232
0.000175798
0.000176912
0.00017755
0.000178618
0.000179925
0.000181593
0.000179367
0.000172876
0.000144512
0.000161866
0.000169707
0.00017138
0.000172209
0.000173501
0.000175251
0.000177345
0.000175573
0.000169397
0.000134284
0.000153903
0.000163811
0.000166402
0.000167717
0.000169317
0.000171074
0.000173387
0.000172142
0.000166422
0.000121853
0.000144559
0.000157387
0.000161181
0.000162854
0.000164861
0.000167321
0.00017035
0.000169753
0.000164674
0.000104291
0.000132844
0.000150312
0.000156258
0.000158933
0.000161274
0.000163701
0.000167267
0.000167503
0.000163236
7.76693e-05
0.000116331
0.000140634
0.000149689
0.000153565
0.000156956
0.000160519
0.000165206
0.000166247
0.000163616
6.3291e-05
9.52936e-05
0.00012764
0.000142117
0.000148924
0.000152763
0.000156424
0.000162303
0.000165432
0.000164151
7.11809e-05
8.66734e-05
0.000103525
0.000123696
0.000139013
0.000147594
0.000152429
0.000160067
0.000164959
0.000166417
8.87074e-05
0.000101416
0.000104489
0.000106686
0.000116778
0.000130549
0.000143968
0.000154222
0.000164043
0.000170079
0.0038063
8.37221e-05
7.03766e-05
7.033e-05
7.03388e-05
7.03395e-05
7.03305e-05
7.03768e-05
8.37099e-05
0.00380733
0.00224049
1.26074e-05
5.29789e-06
5.25751e-06
5.26543e-06
5.2472e-06
5.25214e-06
5.30596e-06
1.25683e-05
0.00224596
0.00146113
1.00036e-05
1.55689e-06
1.41515e-06
1.40609e-06
1.49235e-06
1.44497e-06
1.50142e-06
9.96248e-06
0.00146534
0.0010343
1.56634e-05
1.4217e-06
1.44453e-06
1.38208e-06
1.46728e-06
1.37576e-06
1.40066e-06
1.55982e-05
0.0010379
0.00078468
3.48176e-05
1.59883e-06
1.65274e-06
1.54854e-06
1.57677e-06
1.59548e-06
1.46451e-06
3.19355e-05
0.00078712
0.000626943
5.51059e-05
2.12129e-06
1.4293e-06
1.37572e-06
2.26061e-06
1.36381e-06
2.07238e-06
5.34477e-05
0.000628206
0.000520699
7.82576e-05
2.90692e-06
1.19512e-06
1.1575e-06
3.12226e-06
1.13249e-06
2.0661e-06
8.16747e-05
0.000521968
0.000445361
0.000107539
3.2642e-06
1.00083e-06
1.08034e-06
3.75493e-06
8.82542e-07
2.23597e-06
0.000111284
0.000446747
0.000389907
0.000134317
2.96054e-06
9.10067e-07
7.50385e-07
4.39977e-06
1.28756e-06
2.25674e-06
0.000134781
0.000391239
0.000347693
0.000155401
2.90232e-06
1.07011e-06
1.38005e-06
6.67332e-06
1.34505e-06
3.88283e-06
0.000144936
0.000349116
0.000314658
0.000163432
4.41547e-06
9.29683e-07
2.3846e-06
4.8967e-06
2.70579e-06
3.75111e-06
0.000142797
0.000316276
0.000288128
0.000167631
6.49852e-06
1.55204e-06
2.09946e-06
4.97854e-06
2.63333e-06
3.98493e-06
0.000143592
0.000290051
0.000266406
0.000167072
1.32686e-05
1.91039e-06
2.12835e-06
6.16876e-06
2.77277e-06
4.5661e-06
0.000143179
0.000268759
0.000248253
0.000166164
2.29852e-05
2.79515e-06
2.24901e-06
1.02739e-05
2.79096e-06
4.83619e-06
0.000143854
0.000251251
0.000232888
0.000166853
3.76357e-05
6.15058e-06
3.39073e-06
1.13083e-05
4.26537e-06
8.51769e-06
0.00014622
0.000236591
0.000219698
0.000168934
5.38575e-05
1.1711e-05
6.54068e-06
1.92261e-05
5.71008e-06
1.87049e-05
0.000150559
0.00022425
0.000208224
0.000172464
5.84346e-05
1.51969e-05
7.94487e-06
2.07903e-05
7.73179e-06
2.24583e-05
0.000155279
0.000213701
0.000198098
0.000176097
6.82252e-05
2.80171e-05
1.2097e-05
2.49822e-05
9.92039e-06
2.72956e-05
0.000158963
0.000204757
0.000188975
0.000178857
8.51157e-05
3.09903e-05
1.40061e-05
2.92708e-05
1.33129e-05
3.34838e-05
0.000160196
0.000196993
0.000180609
0.000182395
0.000100514
4.41843e-05
1.89288e-05
4.61382e-05
2.51806e-05
5.31389e-05
0.000160586
0.000190382
0.000172721
0.000183324
0.000110747
5.43651e-05
3.88888e-05
6.91842e-05
5.48127e-05
7.80771e-05
0.000158006
0.000184619
0.000165059
0.000185664
0.000119759
7.06724e-05
4.72059e-05
6.86491e-05
5.62386e-05
7.50649e-05
0.000154768
0.000179624
0.000157367
0.000184605
0.000129625
8.32059e-05
5.98557e-05
7.18454e-05
7.32906e-05
8.74152e-05
0.000149007
0.000175398
0.000149283
0.000184011
0.000139992
0.000102252
7.83444e-05
8.03664e-05
7.84241e-05
9.50888e-05
0.000143087
0.000171319
0.000140388
0.000186738
0.000146828
0.000110605
9.31529e-05
8.98911e-05
8.64339e-05
9.66738e-05
0.000136512
0.000168262
0.000129911
0.000191436
0.000162352
0.000119041
0.000103207
9.61019e-05
9.27184e-05
9.86407e-05
0.000129496
0.000164315
0.000116964
0.000197982
0.000167678
0.000126883
0.000108332
0.000101694
0.000101237
0.000105363
0.000123629
0.000161902
0.00010098
0.000209986
0.000192459
0.000141362
0.000122727
0.000109717
0.000106561
0.000104726
0.000139573
0.00015821
8.88552e-05
0.000219119
0.000213469
0.000156958
0.000132166
0.00011901
0.000117983
0.000122937
0.0001028
0.000156954
8.98441e-05
0.000240341
0.000239862
0.000199662
0.00014902
0.000125066
0.000122399
0.000122244
0.00015733
0.000154545
0.00380082
7.038e-05
5.85033e-05
5.84774e-05
5.84809e-05
5.84773e-05
5.84807e-05
5.85001e-05
7.03759e-05
0.00380292
0.00222872
5.3101e-06
9.07245e-07
8.22338e-07
8.9161e-07
8.13476e-07
8.76588e-07
9.0425e-07
5.28278e-06
0.00223499
0.00145192
1.49404e-06
3.06403e-09
2.22492e-10
1.8187e-09
2.00886e-10
1.58762e-09
3.85609e-09
1.50168e-06
0.00145608
0.00103106
1.34699e-06
2.15979e-12
9.65176e-14
7.20384e-13
3.02383e-14
5.87097e-12
1.71445e-11
1.36979e-06
0.00103461
0.000783415
1.63675e-06
7.89856e-13
2.96871e-13
1.56279e-11
3.75772e-13
6.89769e-13
1.34758e-11
1.45033e-06
0.000786424
0.000627022
1.33449e-06
3.41041e-12
5.33059e-13
5.36852e-12
1.15987e-12
2.14834e-13
1.46655e-11
2.01964e-06
0.000629282
0.000521761
1.12577e-06
4.49358e-12
7.1862e-13
1.22845e-11
4.51486e-12
6.05724e-12
7.67916e-12
2.14628e-06
0.000523723
0.000447216
8.82978e-07
1.46597e-11
7.19224e-13
4.49205e-13
7.17495e-12
5.20214e-13
5.6127e-11
1.9058e-06
0.000449001
0.000392331
1.6487e-06
1.35629e-10
6.56119e-13
1.20549e-12
6.89782e-12
9.34523e-13
6.31374e-11
1.88058e-06
0.00039394
0.000350297
1.67027e-06
7.8248e-10
1.75778e-12
1.80172e-11
1.89985e-11
1.59406e-11
8.91443e-11
1.93886e-06
0.000351712
0.000317569
2.36429e-06
8.11348e-10
9.40873e-12
1.71494e-10
9.32114e-11
2.68996e-10
1.12353e-10
2.6716e-06
0.00031894
0.000290951
2.62747e-06
5.59873e-09
1.12049e-10
4.81981e-10
9.21865e-10
2.77776e-09
1.21951e-10
4.83539e-06
0.000292619
0.000269633
3.82219e-06
8.71794e-09
2.79557e-10
9.31822e-10
2.2006e-09
8.48618e-09
1.36351e-10
8.53749e-06
0.000271092
0.000251606
6.67412e-06
1.85566e-08
7.20384e-10
1.05313e-09
3.79149e-09
1.00965e-08
3.12286e-10
1.66605e-05
0.000253598
0.0002365
1.68671e-05
4.6063e-08
1.06571e-08
2.25757e-08
8.90576e-08
2.80284e-08
1.1925e-09
2.05988e-05
0.000238775
0.000223502
3.47884e-05
3.19254e-07
1.24794e-08
6.51204e-09
3.68023e-08
6.78263e-08
5.6639e-09
2.31405e-05
0.000226421
0.000212195
4.25288e-05
1.5921e-06
5.96975e-08
5.10858e-08
8.60895e-08
1.81593e-07
1.74041e-08
2.86588e-05
0.000215768
0.000202232
6.25959e-05
4.80272e-06
1.69434e-07
7.61081e-08
2.41273e-07
4.45842e-07
7.83919e-08
5.00119e-05
0.000206877
0.000193272
8.45961e-05
1.22171e-05
5.92125e-07
1.39338e-07
7.22877e-07
1.06544e-06
3.3005e-07
5.18653e-05
0.000198822
0.000185054
9.92051e-05
2.03695e-05
1.10122e-06
2.88667e-07
1.3346e-06
1.38945e-06
5.39188e-07
6.75486e-05
0.000192284
0.000177335
0.000110597
2.59857e-05
2.28559e-06
6.1414e-07
1.77761e-06
1.98285e-06
9.14387e-07
7.68812e-05
0.000185967
0.00016997
0.000126414
3.17166e-05
3.97355e-06
1.3878e-06
2.63377e-06
3.88078e-06
1.75674e-06
7.77501e-05
0.000181071
0.000162765
0.00013794
3.77051e-05
7.52528e-06
2.41114e-06
3.67819e-06
5.4726e-06
3.42923e-06
7.47752e-05
0.0001757
0.000155492
0.000153356
4.22364e-05
9.07577e-06
3.82312e-06
5.4361e-06
6.69278e-06
5.72404e-06
6.88133e-05
0.000171882
0.000148016
0.000159993
6.45489e-05
1.54715e-05
6.403e-06
6.42204e-06
8.64666e-06
7.44263e-06
6.20755e-05
0.00016679
0.000139962
0.00016178
8.51283e-05
2.2619e-05
8.42921e-06
8.46188e-06
9.69692e-06
8.79603e-06
5.3619e-05
0.000163454
0.000131013
0.000169188
0.00010847
3.34813e-05
1.27882e-05
9.82622e-06
1.16863e-05
1.10498e-05
4.61678e-05
0.000157575
0.000120934
0.000180083
0.000125587
4.45948e-05
1.85152e-05
1.3063e-05
1.30779e-05
1.39964e-05
3.92808e-05
0.000153625
0.000109812
0.000190787
0.000157345
6.18469e-05
2.682e-05
1.80278e-05
1.77872e-05
1.36943e-05
3.16696e-05
0.000143888
0.00010089
0.000209844
0.000185675
9.62972e-05
4.3106e-05
2.68048e-05
2.06762e-05
2.3274e-05
3.51409e-05
0.000137139
0.0037996
7.03324e-05
5.84802e-05
5.84531e-05
5.84534e-05
5.84534e-05
5.84672e-05
5.84766e-05
7.0329e-05
0.00380175
0.00222355
5.27044e-06
8.55532e-07
8.4359e-07
8.42237e-07
8.42756e-07
8.53099e-07
8.20199e-07
5.23262e-06
0.00222972
0.00144561
1.39014e-06
2.38094e-09
4.20415e-10
5.30515e-10
4.54147e-10
1.3267e-09
1.9923e-10
1.44862e-06
0.00144958
0.00102552
1.36936e-06
4.61948e-12
2.12525e-14
2.77398e-14
2.37514e-14
3.69912e-14
3.27482e-14
1.40622e-06
0.00102903
0.00077886
1.52577e-06
1.53704e-11
5.53111e-22
6.3424e-22
2.55448e-20
1.15648e-18
2.44253e-12
1.3968e-06
0.000781925
0.000623226
1.98315e-06
1.93992e-12
2.33862e-19
1.18898e-20
4.36672e-19
6.05401e-18
1.07616e-11
2.47786e-06
0.000625685
0.000518555
9.96403e-07
1.20694e-11
2.38437e-17
1.96242e-18
1.61473e-16
3.80833e-16
2.30408e-11
1.31536e-06
0.000520801
0.000444659
1.70758e-06
2.40521e-10
1.90722e-16
8.42933e-19
1.5668e-16
7.15644e-16
9.22048e-11
1.13429e-06
0.000446652
0.000389978
1.80488e-06
2.48383e-10
1.27524e-15
1.02258e-18
2.44685e-16
7.21772e-15
1.77132e-10
9.44981e-07
0.000391965
0.000348426
3.00716e-06
6.01853e-10
1.34083e-15
2.93238e-17
4.72423e-16
1.29876e-13
7.60278e-10
1.14243e-06
0.000350069
0.000315594
3.61335e-06
7.00951e-09
4.60427e-14
1.55603e-16
8.73813e-16
7.99898e-13
4.69536e-09
1.54272e-06
0.000317656
0.000289188
5.49115e-06
1.81944e-08
4.57316e-13
8.82009e-16
1.86779e-15
1.85295e-12
2.34767e-09
2.9378e-06
0.000291852
0.000267802
6.03418e-06
7.60699e-09
3.05047e-12
1.04567e-13
6.71403e-15
5.02614e-12
9.07403e-09
5.7512e-06
0.000270646
0.000250163
8.57549e-06
6.56487e-08
2.67835e-11
9.92271e-14
7.16458e-14
3.5727e-11
1.02814e-08
1.1883e-05
0.000253472
0.000235121
1.68519e-05
7.34194e-08
1.56375e-10
1.55194e-12
4.63277e-13
5.22983e-11
2.64939e-08
1.35803e-05
0.000238862
0.000222382
2.20493e-05
3.58525e-07
4.82903e-09
3.99432e-12
1.59661e-12
2.97688e-10
6.00089e-08
1.68738e-05
0.000226635
0.000211153
3.63507e-05
6.70328e-07
1.59025e-08
2.58999e-11
1.21535e-11
1.17022e-09
2.68074e-07
2.06484e-05
0.000216023
0.000201266
5.63944e-05
2.42801e-06
1.50866e-08
1.41835e-10
5.16304e-11
5.87118e-09
3.16511e-07
3.83204e-05
0.000207183
0.000192337
6.74899e-05
5.70701e-06
7.90356e-08
4.52366e-10
5.37929e-10
1.66274e-08
6.14862e-07
3.88554e-05
0.000199052
0.000184144
8.27604e-05
9.8253e-06
2.8761e-07
1.98567e-09
9.02283e-10
1.72995e-08
1.04141e-06
5.42648e-05
0.00019259
0.00017646
0.000103085
1.48536e-05
8.01284e-07
1.6203e-08
3.55429e-09
2.54818e-08
1.2422e-06
6.80393e-05
0.000186156
0.000169159
0.000121885
1.98768e-05
1.65357e-06
5.58054e-08
7.84912e-09
5.68769e-08
1.70069e-06
7.27788e-05
0.000181458
0.000162043
0.000130672
2.88157e-05
2.71524e-06
1.97391e-07
2.72418e-08
9.47426e-08
2.15106e-06
7.05253e-05
0.000175929
0.000154896
0.000144092
3.35313e-05
5.2213e-06
3.69455e-07
4.56244e-08
1.21516e-07
2.74892e-06
6.60939e-05
0.000172389
0.000147656
0.000153365
5.12076e-05
8.12325e-06
1.03259e-06
1.8441e-07
1.55272e-07
3.01989e-06
5.79878e-05
0.000167059
0.000139987
0.000153825
7.40997e-05
1.60589e-05
1.79307e-06
2.19528e-07
2.18093e-07
2.66794e-06
5.008e-05
0.000163909
0.00013171
0.00015993
8.69674e-05
2.82775e-05
5.41203e-06
8.95445e-07
4.24227e-07
2.13874e-06
3.96659e-05
0.000157767
0.00012261
0.000166335
0.00010461
3.62503e-05
8.34751e-06
1.84295e-06
5.13363e-07
1.70426e-06
3.10473e-05
0.000153429
0.000112496
0.000174334
0.000124929
4.2181e-05
1.25048e-05
2.88408e-06
1.31728e-06
1.33888e-06
2.05284e-05
0.000143568
0.000101589
0.000187813
0.000155263
6.20262e-05
2.04728e-05
6.35818e-06
1.60051e-06
1.68273e-06
1.36354e-05
0.000133679
0.0037993
7.03416e-05
5.84722e-05
5.84604e-05
5.84711e-05
5.84681e-05
5.84641e-05
5.84756e-05
7.03378e-05
0.00380145
0.00222196
5.27028e-06
8.7055e-07
8.68121e-07
8.4481e-07
8.5514e-07
8.57929e-07
8.11637e-07
5.2354e-06
0.00222811
0.00144323
1.41015e-06
1.32592e-09
3.70335e-09
1.29326e-09
1.3621e-09
1.61968e-09
1.89448e-10
1.45671e-06
0.00144716
0.00102302
1.34973e-06
8.07333e-14
6.72224e-14
6.77412e-14
3.48315e-14
1.96098e-14
2.29892e-14
1.45632e-06
0.00102652
0.000776423
1.76682e-06
4.46304e-12
1.13579e-21
2.84065e-19
1.8216e-21
6.11439e-22
5.55552e-13
1.71544e-06
0.000779514
0.000620973
1.29518e-06
4.98243e-11
3.43773e-20
8.14367e-23
7.64892e-21
6.03511e-21
2.64226e-12
1.42715e-06
0.000623444
0.000516581
1.18942e-06
6.61104e-11
1.22031e-15
9.88762e-23
6.26993e-20
1.0948e-17
7.11386e-12
1.17538e-06
0.000518691
0.000442832
1.07964e-06
9.00086e-11
3.31311e-15
1.02985e-21
2.42654e-19
1.316e-16
9.0514e-12
9.809e-07
0.000444779
0.000388355
7.76927e-07
1.29105e-10
8.64665e-15
1.19076e-20
1.08848e-18
2.35618e-15
3.10303e-11
8.53249e-07
0.000390269
0.000346874
1.71652e-06
3.66857e-10
7.39995e-15
1.44754e-19
2.58253e-18
9.39381e-15
5.25473e-11
9.51774e-07
0.00034879
0.000314363
2.99667e-06
1.50181e-09
1.47289e-13
3.39663e-18
3.8464e-18
2.97974e-14
9.82778e-11
8.79111e-07
0.000316383
0.000288232
2.91518e-06
3.30704e-09
1.26451e-12
8.2381e-17
5.23323e-18
1.10838e-13
2.60986e-10
1.22046e-06
0.000290667
0.000266905
3.11503e-06
7.71798e-09
2.61623e-12
2.81258e-16
5.9227e-17
5.27001e-12
9.69033e-10
1.44751e-06
0.000269518
0.000249207
3.14994e-06
2.91088e-09
6.81036e-13
1.05928e-14
2.67075e-16
2.18502e-12
2.16212e-09
2.2019e-06
0.000252321
0.000234175
5.05519e-06
4.78436e-08
7.64109e-11
5.47581e-14
5.67566e-17
7.02092e-11
1.79124e-07
3.9791e-06
0.000237484
0.000221563
7.11627e-06
8.87398e-08
5.34019e-10
1.04484e-12
1.05709e-14
1.17814e-09
1.15125e-07
4.5941e-06
0.000225244
0.000210428
1.24179e-05
3.13869e-07
2.08158e-09
6.14521e-10
1.1908e-09
1.70608e-08
3.21046e-07
8.34782e-06
0.00021459
0.000200617
2.57465e-05
7.7542e-07
9.46037e-09
1.21063e-10
2.94679e-12
6.95122e-09
4.75926e-07
1.42227e-05
0.000205672
0.000191754
4.72484e-05
3.07395e-06
5.14486e-08
4.56434e-10
7.39222e-12
7.57492e-09
1.18169e-06
1.33913e-05
0.000197594
0.000183625
7.39305e-05
5.90441e-06
1.71235e-07
1.16941e-09
5.34816e-11
3.5506e-08
1.41824e-06
1.73234e-05
0.000191126
0.000176037
9.44447e-05
1.08939e-05
5.90739e-07
1.70504e-08
3.38706e-11
1.88639e-08
1.80614e-06
3.70189e-05
0.000184743
0.000168792
0.000113075
1.49109e-05
9.86314e-07
3.94395e-08
2.01593e-09
1.23746e-08
2.73212e-06
3.52457e-05
0.000180051
0.000161735
0.000124998
2.26439e-05
2.16516e-06
1.39007e-07
3.86837e-09
3.02357e-08
2.84563e-06
4.85462e-05
0.000174597
0.000154613
0.000138485
2.72366e-05
3.18118e-06
2.54224e-07
4.30863e-08
3.56123e-08
2.91514e-06
5.4638e-05
0.00017118
0.000147394
0.000150003
4.07418e-05
5.53164e-06
6.14475e-07
2.53243e-08
3.935e-08
2.65506e-06
5.15049e-05
0.000165915
0.000139708
0.000151024
6.38305e-05
9.30017e-06
1.11291e-06
2.2923e-07
3.89439e-08
2.18734e-06
4.58505e-05
0.000162752
0.000131408
0.000158792
8.00339e-05
1.74713e-05
2.63856e-06
1.95432e-07
1.34073e-07
1.61696e-06
3.69832e-05
0.000156888
0.00012204
0.000164205
0.000100997
2.38352e-05
4.66744e-06
1.18183e-06
5.69982e-08
1.1292e-06
2.89342e-05
0.000151599
0.000111733
0.000176847
0.000123357
4.02022e-05
9.51252e-06
1.28065e-06
7.32141e-07
6.73372e-07
1.99074e-05
0.000142656
9.96461e-05
0.000181313
0.000154209
5.82352e-05
1.81848e-05
4.77569e-06
7.46699e-07
9.9655e-07
1.31455e-05
0.000131065
0.0037993
7.03415e-05
5.84767e-05
5.84525e-05
5.84672e-05
5.84584e-05
5.84524e-05
5.84755e-05
7.03379e-05
0.00380145
0.00222195
5.26857e-06
8.09363e-07
8.55373e-07
8.51936e-07
8.42785e-07
8.52666e-07
8.11365e-07
5.23694e-06
0.00222811
0.0014432
1.41633e-06
1.72337e-10
9.25361e-10
1.37031e-09
2.47307e-09
1.25296e-09
1.9408e-10
1.4522e-06
0.00144716
0.00102306
1.45739e-06
4.37828e-14
4.89845e-14
4.18336e-14
1.67667e-13
2.76209e-13
2.00018e-14
1.39782e-06
0.00102649
0.000776407
1.69595e-06
5.6282e-12
7.9611e-19
3.49686e-21
9.27307e-21
3.75622e-19
7.18577e-13
1.60246e-06
0.000779498
0.000621011
1.41776e-06
1.7177e-11
2.50801e-18
2.14403e-24
6.79978e-22
2.90234e-21
3.15881e-12
1.41214e-06
0.000623439
0.000516604
1.15864e-06
2.7838e-11
5.77083e-16
7.4825e-24
3.42522e-21
1.39092e-20
6.77087e-12
1.16657e-06
0.000518699
0.000442848
9.8315e-07
3.83018e-11
1.66391e-15
1.01394e-21
1.01619e-18
2.41572e-17
1.96116e-11
9.81189e-07
0.000444776
0.000388399
8.40404e-07
1.01048e-10
2.00803e-15
5.69195e-19
7.71606e-19
6.38224e-17
2.97903e-11
8.58083e-07
0.000390268
0.000346914
1.25495e-06
3.68885e-10
9.77197e-15
9.1343e-19
1.05981e-17
2.6281e-16
3.80369e-11
9.61184e-07
0.00034879
0.00031447
2.51507e-06
1.25311e-09
1.66737e-13
2.9745e-16
1.2167e-14
1.7592e-15
6.57543e-11
7.74835e-07
0.000316386
0.000288349
2.60604e-06
1.66074e-09
1.10633e-12
7.91777e-17
2.04246e-14
7.20048e-14
3.55841e-10
2.01652e-06
0.000290621
0.000266985
2.9638e-06
1.57552e-08
4.63373e-12
1.73035e-15
7.81599e-14
3.37991e-13
7.54013e-10
1.99614e-06
0.000269534
0.000249303
4.34506e-06
7.89891e-09
7.36195e-11
8.25893e-15
1.22159e-13
2.81822e-10
8.03006e-11
2.10667e-06
0.000252303
0.000234216
1.10592e-05
2.92493e-08
4.09636e-11
1.95352e-13
2.09647e-11
9.87229e-12
7.71464e-09
4.27897e-06
0.000237435
0.000221517
1.57623e-05
1.82234e-07
6.95687e-10
2.11157e-12
1.54581e-11
2.65749e-11
7.73799e-08
8.43288e-06
0.000225213
0.000210308
3.44528e-05
7.92842e-07
5.52447e-09
1.35246e-10
1.18518e-10
4.27225e-09
4.01927e-07
1.58915e-05
0.000214558
0.000200522
6.74716e-05
2.32053e-06
2.33998e-08
1.98573e-10
1.74925e-10
1.83537e-08
4.96599e-07
1.98209e-05
0.000205632
0.000191728
8.1784e-05
5.7625e-06
1.54405e-07
2.61355e-09
2.59266e-10
8.86735e-09
7.25183e-07
2.05153e-05
0.000197543
0.000183635
9.53514e-05
8.06827e-06
3.50311e-07
8.89353e-09
6.85511e-10
4.49733e-09
5.04931e-06
2.50299e-05
0.000191031
0.000176049
0.00011118
1.2445e-05
6.95753e-07
3.07016e-08
1.13109e-09
1.67422e-08
1.8213e-06
4.47914e-05
0.000184642
0.000168766
0.00012212
1.56433e-05
1.09522e-06
5.26169e-08
4.21994e-09
1.90165e-08
1.13977e-06
4.30671e-05
0.000179892
0.000161695
0.000131233
2.27897e-05
2.03274e-06
1.5489e-07
8.7445e-09
2.62562e-08
2.42662e-06
5.31685e-05
0.000174512
0.000154567
0.000138982
2.67787e-05
3.05002e-06
2.48073e-07
2.17118e-08
3.19452e-08
3.73607e-06
5.61195e-05
0.00017094
0.000147281
0.000147278
3.89801e-05
5.31708e-06
6.75785e-07
4.40637e-08
3.00938e-08
2.72394e-06
5.12592e-05
0.000165901
0.000139512
0.000147164
5.58182e-05
8.42725e-06
1.03356e-06
1.56609e-07
4.17572e-08
2.10114e-06
4.53514e-05
0.000162445
0.000131145
0.000154883
7.42154e-05
1.49615e-05
2.62331e-06
3.00936e-07
5.67152e-08
1.48425e-06
3.6375e-05
0.000156731
0.000121748
0.000160906
9.5571e-05
2.2444e-05
4.14089e-06
8.56017e-07
7.59554e-08
1.07611e-06
2.81962e-05
0.000152228
0.000111418
0.000173655
0.000120586
3.64975e-05
8.90633e-06
1.61891e-06
8.70901e-07
6.68401e-07
2.02721e-05
0.000141719
9.94382e-05
0.000181529
0.00015133
5.82871e-05
1.52711e-05
4.20613e-06
6.53513e-07
9.37278e-07
1.14823e-05
0.000134535
0.00379961
7.03337e-05
5.84767e-05
5.84608e-05
5.84604e-05
5.84525e-05
5.84608e-05
5.84763e-05
7.03296e-05
0.00380174
0.00222355
5.24633e-06
8.13622e-07
8.24109e-07
8.68693e-07
8.40305e-07
8.69647e-07
8.23974e-07
5.22438e-06
0.0022297
0.00144554
1.49473e-06
1.9374e-10
1.9164e-09
2.74451e-09
8.74527e-10
3.90083e-09
2.12822e-10
1.47957e-06
0.0014495
0.00102551
1.46792e-06
2.5888e-14
9.06539e-14
1.88973e-13
2.89106e-14
5.57495e-14
3.64925e-14
1.46203e-06
0.00102896
0.00077887
1.5767e-06
1.5832e-12
1.59698e-17
4.70345e-18
6.18887e-22
8.21182e-22
4.19754e-12
1.54915e-06
0.000781915
0.00062329
2.31782e-06
1.6072e-12
8.27955e-18
6.88336e-20
1.80046e-21
2.85898e-21
1.16701e-11
2.23256e-06
0.000625647
0.000518673
2.33163e-06
2.72858e-12
2.50805e-16
7.8125e-20
4.89967e-16
3.66092e-18
5.05691e-11
2.42419e-06
0.000520818
0.000444685
3.79307e-06
2.11778e-11
3.23116e-15
3.40165e-17
1.28637e-13
4.00848e-16
1.96118e-10
3.90134e-06
0.000446591
0.000390088
4.37675e-06
2.27269e-11
5.0331e-15
1.58323e-14
1.80133e-14
4.33803e-15
6.28938e-10
4.36629e-06
0.000391962
0.000348313
5.20138e-06
3.71802e-11
5.91629e-15
1.91304e-13
7.17499e-14
3.91409e-14
1.23703e-09
3.0821e-06
0.000350337
0.000315691
4.33307e-06
2.80566e-10
1.66054e-14
2.06345e-13
1.48096e-13
4.31138e-13
2.26954e-08
7.4195e-06
0.000317852
0.000289031
5.95603e-06
2.9671e-09
1.04776e-13
1.19587e-12
2.07407e-12
3.63625e-12
6.08473e-09
6.99297e-06
0.000291773
0.000268041
7.48927e-06
1.1468e-08
6.6618e-13
4.17011e-13
7.1786e-12
1.08911e-11
6.32403e-08
7.29989e-06
0.000270679
0.00025021
8.90801e-06
3.27915e-08
3.71749e-12
1.37851e-12
3.77913e-11
7.84044e-12
3.57289e-08
7.26974e-06
0.000253318
0.000235273
1.42532e-05
1.20667e-07
9.4326e-11
1.18829e-10
9.40587e-10
2.13632e-11
2.08372e-07
1.01045e-05
0.000238492
0.000222388
2.62313e-05
2.56709e-07
6.8446e-10
3.05809e-10
1.64195e-09
6.07153e-10
1.57761e-07
1.24195e-05
0.000226402
0.000211122
3.60374e-05
5.45287e-07
6.95894e-09
3.7563e-09
1.65889e-08
2.37701e-09
6.18033e-07
1.51271e-05
0.000215721
0.000201198
6.08999e-05
2.31151e-06
1.03505e-08
7.34948e-09
2.25287e-08
9.81284e-09
1.32927e-06
1.80491e-05
0.000206816
0.000192301
8.59227e-05
3.87448e-06
5.30046e-08
3.30967e-08
2.88152e-08
1.81587e-08
1.37608e-06
2.17968e-05
0.000198714
0.000184127
0.000101933
6.59509e-06
1.06902e-07
3.61249e-08
6.54039e-08
6.42842e-08
1.91236e-06
4.05551e-05
0.000192214
0.000176463
0.000112941
1.2385e-05
5.98812e-07
1.11582e-07
1.00131e-07
8.36269e-08
2.48357e-06
3.93476e-05
0.000185768
0.000169129
0.000124844
1.56342e-05
1.11953e-06
1.79103e-07
1.7829e-07
1.1372e-07
2.93653e-06
5.2672e-05
0.000181053
0.000161979
0.000131363
2.4238e-05
2.58078e-06
3.56516e-07
1.82401e-07
1.53497e-07
3.11554e-06
6.07839e-05
0.000175644
0.000154775
0.000141334
2.83274e-05
3.69779e-06
6.22777e-07
2.05341e-07
2.07374e-07
3.12293e-06
6.15524e-05
0.000172126
0.000147446
0.000150091
4.23359e-05
6.43134e-06
1.21022e-06
3.21979e-07
3.07769e-07
2.80317e-06
5.59221e-05
0.000166908
0.000139711
0.000151581
6.52179e-05
1.01963e-05
1.80156e-06
4.23398e-07
3.71365e-07
2.40089e-06
4.89094e-05
0.000163747
0.000131413
0.000158748
8.08121e-05
1.77627e-05
4.07469e-06
8.84788e-07
5.85077e-07
1.80176e-06
3.90584e-05
0.000157647
0.000122291
0.000165814
0.000101076
2.53664e-05
6.04158e-06
1.31074e-06
6.74875e-07
1.54022e-06
3.05734e-05
0.000153486
0.00011222
0.000174177
0.0001221
3.93424e-05
1.05318e-05
2.92289e-06
1.21708e-06
1.41615e-06
2.05812e-05
0.000143522
0.00010144
0.000186771
0.000152404
5.72364e-05
1.72786e-05
5.08284e-06
2.0513e-06
1.71019e-06
1.45032e-05
0.000133733
0.00380084
7.03787e-05
5.85002e-05
5.84779e-05
5.84764e-05
5.84797e-05
5.84755e-05
5.84988e-05
7.03749e-05
0.00380294
0.00222891
5.32924e-06
9.04078e-07
8.78626e-07
8.11691e-07
8.85331e-07
8.13186e-07
9.03817e-07
5.29172e-06
0.00223504
0.00145201
1.42243e-06
3.76999e-09
3.61995e-09
1.74088e-10
2.49826e-09
1.89364e-10
4.10313e-09
1.49187e-06
0.00145604
0.0010312
1.4128e-06
1.52737e-11
1.59814e-11
4.29384e-14
1.05753e-11
4.5049e-14
2.10553e-11
1.4106e-06
0.00103463
0.00078373
1.39867e-06
7.76948e-12
4.06541e-12
9.32702e-12
4.92768e-13
1.81143e-13
9.91085e-12
1.48503e-06
0.000786729
0.000627233
2.34848e-06
1.48856e-11
4.79499e-13
2.20479e-11
7.59817e-13
1.93542e-12
8.4096e-12
2.05737e-06
0.000629582
0.000521834
1.20837e-06
8.26126e-11
9.38899e-12
4.41681e-11
1.17179e-11
4.53379e-12
1.55615e-11
2.96179e-06
0.000523987
0.000447261
1.15338e-06
1.00213e-10
3.74687e-11
6.0073e-11
6.85378e-11
6.39371e-11
1.01149e-10
2.81523e-06
0.000449234
0.000392383
1.17986e-06
1.34543e-10
5.29586e-11
8.35239e-11
2.24665e-11
1.73661e-10
6.81868e-11
2.46119e-06
0.000394037
0.000350255
1.26704e-06
3.85174e-10
7.31597e-11
1.98716e-10
3.39149e-11
4.37177e-10
9.29301e-11
3.08489e-06
0.000351823
0.000317401
2.05896e-06
8.9517e-10
1.50198e-10
1.6154e-10
4.05749e-11
4.7713e-10
2.11195e-10
3.28262e-06
0.000318796
0.000291147
2.47053e-06
1.68819e-09
4.33754e-10
9.83108e-10
5.67503e-11
3.737e-09
4.88571e-10
5.88281e-06
0.000292279
0.000269498
2.89185e-06
6.06241e-09
1.50985e-09
4.62852e-10
2.49804e-10
6.58278e-09
9.85403e-10
6.45324e-06
0.000270869
0.000251653
5.26546e-06
2.04699e-08
4.9558e-09
8.75835e-10
8.1478e-10
1.88076e-09
1.1986e-09
9.17353e-06
0.000253268
0.000236447
9.78245e-06
7.70362e-08
1.47099e-08
1.14594e-08
1.10253e-08
2.63927e-08
6.54083e-09
1.21764e-05
0.000238314
0.000223494
1.25085e-05
3.21116e-07
4.76551e-08
2.37593e-08
5.3375e-08
4.56364e-08
3.81561e-08
2.10884e-05
0.000226061
0.000212219
1.68745e-05
1.09748e-06
1.33814e-07
1.09012e-07
1.93257e-07
1.69659e-07
1.24492e-07
2.24936e-05
0.000215308
0.000202228
2.32779e-05
2.6159e-06
1.70158e-07
2.75635e-07
3.11786e-07
5.51934e-07
2.35049e-07
2.67486e-05
0.000206355
0.000193207
4.14271e-05
5.79197e-06
2.76478e-07
7.93124e-07
5.56447e-07
1.66639e-06
4.62395e-07
3.13724e-05
0.000198294
0.000184922
5.38051e-05
8.74621e-06
6.11956e-07
1.13904e-06
1.26025e-06
3.72216e-06
1.19304e-06
5.03788e-05
0.000191748
0.000177176
6.86374e-05
1.32748e-05
1.68638e-06
1.94399e-06
3.09809e-06
5.99742e-06
3.13523e-06
5.05019e-05
0.000185421
0.000169756
9.59199e-05
1.69108e-05
3.63683e-06
3.99194e-06
5.72108e-06
8.92813e-06
5.6216e-06
6.30069e-05
0.000180601
0.000162494
0.000120446
2.61252e-05
7.14967e-06
7.22952e-06
8.57205e-06
1.09416e-05
8.06317e-06
6.97778e-05
0.000175352
0.000155095
0.000141307
3.23469e-05
1.07692e-05
9.8143e-06
1.1082e-05
1.23295e-05
9.68778e-06
6.77881e-05
0.000171682
0.000147522
0.000152979
5.25335e-05
1.67534e-05
1.21884e-05
1.26271e-05
1.30173e-05
1.12845e-05
6.3676e-05
0.000166688
0.00013928
0.000155586
7.44547e-05
2.20515e-05
1.44397e-05
1.39233e-05
1.40404e-05
1.25608e-05
5.59754e-05
0.000163484
0.000130209
0.000165908
0.000100059
3.62828e-05
1.83914e-05
1.49889e-05
1.49013e-05
1.39211e-05
4.94183e-05
0.000157775
0.000119819
0.000177678
0.000119335
4.58171e-05
2.57776e-05
1.76167e-05
1.66074e-05
1.5796e-05
4.18818e-05
0.000153594
0.000108556
0.000190584
0.000152642
6.53348e-05
3.51744e-05
2.13193e-05
1.92035e-05
1.75506e-05
3.43585e-05
0.000144282
0.000100012
0.000209172
0.000183246
9.41234e-05
5.2053e-05
3.08016e-05
2.26251e-05
2.3936e-05
3.76956e-05
0.000138229
0.00380564
8.37159e-05
7.03787e-05
7.03319e-05
7.03409e-05
7.03406e-05
7.03321e-05
7.03778e-05
8.37131e-05
0.00380762
0.00224093
1.25798e-05
5.28434e-06
5.22124e-06
5.23861e-06
5.24392e-06
5.23506e-06
5.29528e-06
1.25513e-05
0.00224695
0.00146099
9.98834e-06
1.53213e-06
1.57314e-06
1.46885e-06
1.44989e-06
1.46176e-06
1.49899e-06
9.95964e-06
0.0014661
0.0010342
1.56939e-05
1.39517e-06
1.44864e-06
1.46384e-06
1.40939e-06
1.39329e-06
1.4162e-06
1.57533e-05
0.00103848
0.000784759
3.2239e-05
1.52981e-06
1.60438e-06
1.7488e-06
1.58942e-06
1.57062e-06
1.45156e-06
3.22469e-05
0.000787679
0.000626553
5.42013e-05
2.08236e-06
2.26432e-06
1.44794e-06
1.43616e-06
1.58729e-06