/*--------------------------------*- C++ -*----------------------------------*\
| =========                 |                                                 |
| \\      /  F ield         | OpenFOAM: The Open Source CFD Toolbox           |
|  \\    /   O peration     | Version:  4.1                                   |
|   \\  /    A nd           | Web:      www.OpenFOAM.org                      |
|    \\/     M anipulation  |                                                 |
\*---------------------------------------------------------------------------*/
FoamFile
{
    version     2.0;
    format      ascii;
    class       volScalarField;
    location    "1000";
    object      p;
}
// * * * * * * * * * * * * * * * * * * * * * * * * * * * * * * * * * * * * * //

dimensions      [0 2 -2 0 0 0 0];

internalField   nonuniform List<scalar> 
12000
(
0.0760871
0.0763658
0.076031
0.0759106
0.0758729
0.0758715
0.0759064
0.0760242
0.0763569
0.0760748
0.075523
0.0755079
0.0754454
0.0754478
0.0754343
0.0754328
0.0754433
0.0754381
0.0754983
0.0755107
0.0754039
0.075168
0.0752289
0.0752768
0.0752786
0.0752769
0.0752716
0.0752205
0.0751571
0.0753902
0.0753728
0.075109
0.0751926
0.0752201
0.0752199
0.0752178
0.0752137
0.0751824
0.075096
0.0753566
0.0752745
0.075055
0.0751408
0.0751433
0.0751405
0.075138
0.0751354
0.0751281
0.0750388
0.0752545
0.0751515
0.0749769
0.0750601
0.0750495
0.0750488
0.0750456
0.0750392
0.0750438
0.0749563
0.0751261
0.0750504
0.0749094
0.0749854
0.0749675
0.0749699
0.0749655
0.074954
0.0749645
0.0748829
0.0750178
0.074976
0.0748608
0.0749276
0.0749043
0.0749081
0.0749024
0.0748869
0.0749011
0.0748265
0.0749338
0.0749175
0.0748227
0.0748803
0.0748528
0.0748565
0.0748493
0.0748307
0.0748463
0.074778
0.0748628
0.0748683
0.0747891
0.0748376
0.0748069
0.0748092
0.0747999
0.0747784
0.0747932
0.0747312
0.0747976
0.0748273
0.0747592
0.0747986
0.0747653
0.0747649
0.0747528
0.0747279
0.0747404
0.0746838
0.074736
0.0747949
0.0747339
0.0747644
0.0747282
0.0747239
0.0747081
0.0746795
0.0746882
0.0746351
0.0746769
0.0747714
0.0747145
0.0747359
0.074696
0.0746861
0.0746654
0.0746325
0.0746362
0.0745848
0.0746183
0.0747571
0.0747018
0.0747135
0.0746685
0.0746513
0.0746243
0.0745858
0.0745832
0.0745321
0.0745582
0.0747529
0.0746968
0.0746977
0.0746459
0.0746194
0.0745843
0.0745385
0.0745277
0.074475
0.0744942
0.0747603
0.074701
0.0746894
0.0746286
0.0745903
0.0745445
0.0744891
0.074468
0.0744116
0.0744238
0.0747811
0.0747164
0.0746898
0.0746166
0.0745635
0.0745037
0.0744356
0.0744016
0.0743389
0.0743438
0.0748177
0.0747454
0.0747001
0.0746106
0.0745384
0.0744607
0.074376
0.0743255
0.0742533
0.07425
0.0748726
0.0747909
0.0747221
0.0746112
0.0745147
0.0744139
0.0743075
0.0742361
0.0741502
0.0741372
0.0749481
0.0748561
0.0747574
0.0746192
0.0744923
0.0743618
0.0742268
0.0741284
0.0740233
0.0739984
0.0750455
0.074944
0.0748084
0.0746356
0.0744708
0.0743024
0.07413
0.073996
0.0738638
0.0738237
0.0751634
0.0750562
0.0748771
0.0746616
0.0744503
0.0742337
0.0740118
0.07383
0.0736598
0.0735989
0.0752958
0.0751902
0.0749649
0.0746989
0.0744313
0.0741534
0.0738659
0.0736185
0.0733936
0.0733028
0.0754303
0.075337
0.0750723
0.0747506
0.0744154
0.0740598
0.0736846
0.0733451
0.0730386
0.0729022
0.0755479
0.0754777
0.0751974
0.0748216
0.074407
0.0739525
0.0734588
0.0729864
0.0725529
0.0723408
0.0756293
0.0755897
0.0753371
0.074921
0.0744138
0.0738326
0.0731772
0.0725085
0.0718667
0.0715176
0.0756697
0.0756604
0.0754864
0.0750565
0.0744461
0.0737048
0.0728281
0.0718641
0.0708622
0.0702196
0.0756987
0.0757317
0.0756473
0.0752224
0.0745068
0.0735698
0.0723896
0.0709717
0.0693345
0.0679797
0.0757134
0.0757814
0.0757434
0.0753464
0.0745638
0.0734257
0.071862
0.06974
0.066993
0.0633799
0.0756829
0.0757369
0.0756499
0.0752537
0.0744626
0.0731446
0.07112
0.0678363
0.0634597
0.0527247
0.0763671
0.0764061
0.076075
0.0759567
0.0759167
0.0759153
0.0759524
0.0760684
0.0763976
0.0763539
0.0755091
0.0754567
0.075423
0.0754308
0.0754158
0.0754142
0.0754263
0.075416
0.0754473
0.0754964
0.0751694
0.0749485
0.0750349
0.0750908
0.0750918
0.07509
0.0750856
0.0750268
0.0749376
0.0751554
0.0751109
0.0748523
0.0749547
0.0749827
0.0749809
0.0749787
0.0749764
0.0749449
0.0748389
0.0750942
0.0750573
0.074837
0.0749421
0.0749376
0.0749334
0.0749307
0.0749296
0.0749297
0.0748203
0.0750368
0.0749799
0.0747998
0.074903
0.0748825
0.074883
0.0748796
0.0748724
0.0748873
0.0747785
0.0749539
0.0749134
0.0747626
0.0748562
0.0748271
0.0748332
0.074829
0.0748141
0.074836
0.0747352
0.0748799
0.074866
0.0747394
0.07482
0.0747842
0.0747928
0.0747875
0.0747674
0.0747937
0.074704
0.0748226
0.0748295
0.0747229
0.0747909
0.0747509
0.0747596
0.0747527
0.074729
0.0747567
0.0746773
0.0747729
0.0747979
0.0747068
0.0747633
0.0747214
0.0747287
0.0747197
0.0746927
0.0747185
0.0746475
0.0747247
0.0747703
0.0746909
0.0747369
0.0746938
0.0746981
0.0746864
0.0746563
0.0746782
0.0746138
0.0746758
0.0747481
0.0746775
0.0747134
0.0746687
0.0746685
0.0746531
0.0746197
0.0746368
0.0745772
0.0746258
0.0747324
0.0746678
0.0746938
0.0746466
0.0746402
0.0746201
0.0745828
0.0745939
0.0745372
0.0745741
0.0747244
0.0746629
0.0746785
0.0746276
0.0746134
0.0745871
0.0745447
0.0745483
0.0744925
0.0745198
0.0747251
0.0746639
0.0746683
0.0746119
0.0745877
0.0745533
0.0745042
0.0744986
0.0744414
0.0744609
0.0747362
0.0746726
0.0746642
0.0745996
0.074563
0.0745181
0.0744598
0.074443
0.074382
0.0743945
0.0747595
0.0746909
0.0746672
0.0745912
0.0745391
0.0744804
0.0744101
0.0743795
0.0743121
0.0743171
0.0747971
0.0747212
0.0746786
0.0745873
0.0745157
0.0744391
0.0743528
0.0743052
0.074228
0.0742247
0.0748512
0.0747659
0.0747
0.0745884
0.0744923
0.0743928
0.0742852
0.074216
0.0741249
0.074112
0.0749239
0.0748278
0.074733
0.074595
0.0744685
0.0743395
0.0742038
0.0741067
0.0739962
0.0739715
0.0750163
0.0749095
0.0747792
0.0746078
0.0744435
0.0742767
0.074104
0.0739704
0.0738328
0.0737929
0.0751276
0.0750123
0.0748398
0.0746274
0.0744168
0.0742018
0.07398
0.0737978
0.0736218
0.0735611
0.0752539
0.0751353
0.0749161
0.0746548
0.0743881
0.0741117
0.0738245
0.0735758
0.0733441
0.0732534
0.0753857
0.0752735
0.075009
0.0746918
0.074358
0.0740036
0.0736284
0.0732861
0.0729708
0.0728338
0.075508
0.075415
0.0751184
0.0747423
0.0743293
0.0738756
0.0733808
0.0729027
0.0724559
0.0722414
0.0756031
0.0755422
0.0752435
0.0748127
0.0743074
0.0737277
0.0730687
0.0723885
0.0717231
0.0713667
0.0756603
0.0756362
0.075379
0.0749098
0.0743013
0.0735637
0.072679
0.0716921
0.0706431
0.0699771
0.075687
0.0756995
0.075513
0.0750279
0.0743138
0.0733851
0.0721915
0.070732
0.0689959
0.0675687
0.0756799
0.0757136
0.0755828
0.0751146
0.0743285
0.0731972
0.0716079
0.0694111
0.0664683
0.0626133
0.0756544
0.0756311
0.0754449
0.0749987
0.0742126
0.0729136
0.0708739
0.0674508
0.0628067
0.0512913
0.0760333
0.0760762
0.0757685
0.0756459
0.0756045
0.0756031
0.0756417
0.075762
0.0760679
0.0760193
0.0754476
0.0754242
0.0753963
0.0753987
0.0753837
0.0753821
0.0753942
0.0753893
0.0754148
0.0754348
0.0752315
0.0750362
0.0751227
0.0751768
0.0751783
0.0751765
0.0751716
0.0751147
0.0750254
0.0752175
0.0751959
0.0749565
0.0750575
0.075084
0.0750818
0.0750796
0.0750777
0.0750477
0.0749432
0.0751792
0.075145
0.0749443
0.07505
0.0750433
0.0750383
0.0750356
0.0750352
0.0750376
0.0749277
0.0751245
0.0750654
0.0749058
0.0750128
0.0749905
0.0749915
0.0749881
0.0749803
0.0749971
0.0748847
0.0750397
0.0749923
0.0748599
0.0749584
0.0749277
0.0749359
0.0749317
0.0749148
0.0749381
0.0748326
0.0749594
0.0749369
0.0748247
0.0749097
0.0748722
0.0748835
0.0748783
0.0748554
0.0748833
0.0747893
0.0748942
0.0748926
0.0747969
0.0748689
0.0748268
0.0748385
0.0748317
0.0748047
0.0748345
0.074751
0.0748371
0.0748533
0.0747709
0.0748316
0.0747875
0.0747978
0.0747891
0.0747587
0.0747869
0.0747114
0.0747814
0.0748186
0.0747465
0.074797
0.0747518
0.0747592
0.0747478
0.0747143
0.0747388
0.0746695
0.0747255
0.0747901
0.0747257
0.0747661
0.0747196
0.0747224
0.0747075
0.0746708
0.0746903
0.074626
0.0746695
0.0747689
0.0747096
0.07474
0.0746912
0.0746878
0.0746682
0.0746279
0.074641
0.07458
0.0746131
0.0747558
0.074699
0.0747188
0.0746667
0.0746553
0.0746296
0.0745844
0.0745896
0.0745302
0.0745545
0.0747519
0.074695
0.0747031
0.0746457
0.0746243
0.0745905
0.074539
0.0745347
0.0744748
0.0744912
0.0747587
0.0746987
0.0746937
0.0746283
0.0745944
0.0745501
0.07449
0.0744744
0.0744116
0.0744205
0.0747778
0.074712
0.0746914
0.074615
0.0745654
0.0745075
0.0744358
0.0744063
0.074338
0.0743392
0.0748109
0.0747369
0.0746975
0.074606
0.074537
0.0744614
0.0743741
0.0743276
0.0742503
0.0742432
0.0748598
0.0747756
0.0747132
0.0746017
0.0745085
0.0744101
0.0743021
0.0742341
0.0741435
0.0741268
0.0749261
0.0748303
0.0747397
0.0746022
0.074479
0.0743515
0.0742159
0.0741203
0.0740107
0.0739822
0.0750105
0.0749029
0.0747781
0.0746078
0.0744474
0.0742827
0.0741106
0.0739791
0.0738424
0.0737988
0.0751117
0.0749943
0.0748291
0.0746186
0.0744126
0.0742004
0.0739798
0.0738004
0.073625
0.0735607
0.0752259
0.0751035
0.0748933
0.0746348
0.0743736
0.074101
0.0738158
0.0735705
0.0733388
0.0732442
0.0753456
0.0752261
0.0749704
0.0746571
0.07433
0.0739808
0.0736083
0.0732701
0.0729535
0.072812
0.07546
0.0753533
0.0750595
0.0746876
0.0742831
0.0738368
0.0733459
0.0728721
0.0724213
0.0722002
0.075557
0.0754733
0.0751591
0.0747302
0.0742372
0.073669
0.0730154
0.0723386
0.0716634
0.0712952
0.0756272
0.0755736
0.0752671
0.0747915
0.0742028
0.0734846
0.0726081
0.0716217
0.0705488
0.069858
0.0756704
0.0756465
0.0753764
0.0748772
0.0741964
0.0733015
0.0721213
0.0706565
0.0688619
0.0673767
0.0756933
0.0756885
0.0754704
0.0749954
0.0742615
0.0731846
0.0716193
0.0694129
0.066346
0.0623236
0.0757092
0.0756903
0.0755166
0.0751424
0.0744496
0.0732214
0.0712149
0.067779
0.0629325
0.050953
0.0759143
0.0759592
0.0756472
0.0755237
0.075482
0.0754806
0.0755195
0.0756408
0.0759508
0.0759001
0.0754514
0.0754333
0.0754001
0.0754027
0.0753877
0.0753861
0.0753983
0.075393
0.0754239
0.0754386
0.075281
0.0750937
0.0751783
0.0752346
0.0752361
0.0752344
0.0752294
0.0751703
0.0750828
0.0752671
0.0752253
0.0749862
0.0750858
0.0751143
0.0751118
0.0751096
0.075108
0.075076
0.0749731
0.0752087
0.07515
0.074942
0.0750454
0.0750391
0.0750335
0.0750308
0.0750312
0.0750332
0.0749256
0.0751295
0.075058
0.0748881
0.0749932
0.0749703
0.0749707
0.0749674
0.0749602
0.0749776
0.0748672
0.0750323
0.0749783
0.0748344
0.0749314
0.0748998
0.0749078
0.0749036
0.0748868
0.0749113
0.0748074
0.0749453
0.0749185
0.0747937
0.0748769
0.0748381
0.0748496
0.0748443
0.0748213
0.0748509
0.0747588
0.0748752
0.0748717
0.0747633
0.0748329
0.0747892
0.0748011
0.0747942
0.0747673
0.0747993
0.0747179
0.0748148
0.0748316
0.0747375
0.0747955
0.0747495
0.07476
0.0747512
0.0747209
0.0747517
0.0746786
0.0747577
0.0747968
0.0747147
0.0747625
0.0747154
0.0747229
0.0747115
0.0746781
0.0747051
0.0746383
0.0747016
0.0747689
0.0746959
0.0747338
0.0746856
0.0746885
0.0746735
0.0746371
0.0746588
0.0745967
0.0746463
0.0747488
0.074682
0.07471
0.07466
0.0746564
0.0746369
0.0745968
0.0746119
0.0745527
0.0745909
0.0747369
0.0746738
0.0746913
0.0746382
0.0746265
0.0746008
0.0745561
0.0745631
0.0745049
0.0745335
0.0747342
0.074672
0.074678
0.0746199
0.074598
0.0745644
0.0745134
0.0745107
0.0744516
0.0744713
0.074742
0.0746778
0.0746706
0.0746051
0.0745705
0.0745265
0.074467
0.0744527
0.0743904
0.0744017
0.0747618
0.0746928
0.0746699
0.0745937
0.0745436
0.074486
0.074415
0.0743867
0.0743187
0.0743213
0.0747951
0.0747186
0.0746769
0.074586
0.0745166
0.0744416
0.074355
0.0743095
0.0742323
0.0742259
0.0748434
0.0747572
0.0746926
0.0745821
0.0744889
0.0743913
0.074284
0.074217
0.0741264
0.0741098
0.0749079
0.0748107
0.074718
0.0745821
0.0744592
0.0743328
0.0741982
0.0741036
0.0739937
0.0739648
0.0749892
0.0748806
0.0747539
0.0745858
0.0744264
0.0742632
0.0740923
0.0739618
0.0738246
0.07378
0.0750861
0.0749677
0.0748008
0.0745931
0.0743889
0.0741788
0.0739598
0.0737813
0.0736052
0.0735392
0.0751952
0.0750712
0.0748592
0.0746038
0.0743454
0.0740756
0.0737924
0.0735482
0.0733153
0.0732184
0.0753103
0.0751878
0.0749292
0.0746186
0.0742954
0.0739499
0.0735801
0.0732429
0.0729243
0.0727794
0.0754236
0.0753109
0.0750106
0.0746399
0.0742408
0.0737997
0.0733121
0.0728391
0.0723847
0.0721584
0.0755257
0.0754318
0.075104
0.0746736
0.0741881
0.0736274
0.0729783
0.0723017
0.0716193
0.0712424
0.0756097
0.0755415
0.075211
0.0747318
0.0741547
0.0734483
0.0725782
0.0715908
0.0705038
0.0697972
0.0756745
0.0756336
0.075333
0.0748343
0.0741736
0.0732972
0.0721265
0.0706595
0.06884
0.0673245
0.075725
0.0757064
0.0754742
0.0750203
0.0743204
0.07327
0.0717189
0.0695135
0.0664149
0.0623502
0.0757639
0.0757529
0.0756337
0.0753295
0.0746841
0.0734809
0.0714895
0.0680639
0.0632011
0.0512288
0.0758781
0.0759207
0.0756073
0.0754834
0.0754416
0.0754402
0.0754793
0.0756008
0.0759123
0.0758638
0.0754395
0.0754198
0.0753865
0.0753892
0.075374
0.0753725
0.0753847
0.0753795
0.0754104
0.0754266
0.0752846
0.0750964
0.0751815
0.0752379
0.0752394
0.0752376
0.0752327
0.0751735
0.0750856
0.0752705
0.0752273
0.0749865
0.0750857
0.0751139
0.0751111
0.075109
0.0751076
0.075076
0.0749734
0.0752106
0.0751499
0.0749405
0.0750432
0.0750361
0.07503
0.0750274
0.0750282
0.075031
0.0749241
0.0751293
0.075061
0.0748921
0.0749977
0.0749742
0.0749742
0.0749709
0.0749641
0.0749821
0.0748712
0.075035
0.0749857
0.0748449
0.0749439
0.0749122
0.0749202
0.074916
0.0748992
0.0749239
0.0748181
0.0749521
0.0749286
0.0748081
0.074894
0.0748555
0.0748674
0.0748621
0.0748387
0.0748682
0.0747734
0.0748847
0.074883
0.0747795
0.0748523
0.0748088
0.0748214
0.0748145
0.0747869
0.0748186
0.0747344
0.0748262
0.0748435
0.0747547
0.0748161
0.0747701
0.0747815
0.0747727
0.0747415
0.0747719
0.074696
0.0747703
0.0748091
0.0747321
0.0747832
0.0747362
0.0747448
0.0747333
0.0746989
0.0747256
0.0746558
0.0747152
0.0747813
0.0747127
0.0747538
0.0747056
0.0747098
0.0746948
0.0746571
0.0746787
0.0746133
0.0746604
0.0747608
0.0746977
0.0747287
0.0746787
0.0746764
0.0746569
0.0746155
0.0746307
0.0745682
0.0746048
0.0747481
0.0746882
0.0747086
0.0746553
0.0746448
0.0746193
0.0745733
0.0745806
0.0745193
0.0745465
0.0747443
0.0746849
0.0746936
0.0746352
0.0746145
0.0745811
0.0745289
0.0745268
0.0744648
0.0744831
0.0747509
0.0746891
0.0746844
0.0746184
0.0745852
0.0745413
0.0744807
0.0744673
0.0744024
0.0744125
0.0747694
0.0747022
0.0746817
0.074605
0.0745562
0.074499
0.0744269
0.0743997
0.0743294
0.0743311
0.074801
0.074726
0.0746866
0.0745952
0.0745272
0.0744526
0.0743652
0.0743209
0.0742418
0.0742346
0.0748474
0.0747625
0.0746999
0.0745892
0.0744973
0.0744003
0.0742924
0.0742267
0.0741346
0.0741172
0.0749096
0.0748133
0.0747227
0.0745867
0.0744653
0.0743397
0.0742046
0.0741116
0.0740005
0.0739708
0.0749883
0.0748801
0.0747554
0.0745877
0.0744299
0.0742677
0.0740966
0.0739678
0.0738297
0.0737843
0.0750822
0.0749638
0.0747988
0.0745917
0.0743894
0.0741805
0.0739617
0.0737851
0.0736084
0.0735416
0.0751884
0.0750638
0.0748532
0.0745988
0.0743425
0.0740743
0.0737915
0.0735493
0.0733161
0.0732182
0.0753015
0.0751774
0.0749189
0.0746095
0.0742887
0.0739452
0.0735762
0.0732411
0.0729223
0.0727763
0.0754146
0.0752992
0.0749966
0.0746267
0.0742304
0.073792
0.0733057
0.0728348
0.07238
0.0721523
0.0755196
0.0754217
0.075088
0.0746574
0.0741757
0.0736189
0.0729717
0.072297
0.0716137
0.0712344
0.0756098
0.0755368
0.0751965
0.0747166
0.0741453
0.0734448
0.0725779
0.0715922
0.0705031
0.0697926
0.0756826
0.0756372
0.0753266
0.0748293
0.0741785
0.0733116
0.0721464
0.0706817
0.0688588
0.067337
0.0757401
0.0757183
0.0754858
0.0750437
0.0743614
0.0733265
0.0717864
0.0695868
0.0664875
0.0624116
0.075784
0.075774
0.0756816
0.0754121
0.0747961
0.0736168
0.0716452
0.0682346
0.0633795
0.0513901
0.0758782
0.0759207
0.0756073
0.0754835
0.0754417
0.0754402
0.0754793
0.0756008
0.0759123
0.0758639
0.0754396
0.0754199
0.0753866
0.0753892
0.0753741
0.0753725
0.0753848
0.0753796
0.0754104
0.0754266
0.0752847
0.0750965
0.0751816
0.0752379
0.0752394
0.0752376
0.0752328
0.0751735
0.0750856
0.0752706
0.0752275
0.0749866
0.0750857
0.0751139
0.0751112
0.075109
0.0751077
0.075076
0.0749735
0.0752107
0.0751503
0.0749405
0.0750432
0.0750361
0.07503
0.0750274
0.0750283
0.075031
0.0749242
0.0751293
0.0750615
0.0748921
0.0749976
0.0749742
0.0749743
0.0749709
0.0749641
0.0749822
0.0748713
0.0750348
0.074986
0.074845
0.0749439
0.0749123
0.0749202
0.0749161
0.0748993
0.074924
0.0748182
0.0749519
0.0749286
0.0748082
0.0748942
0.0748556
0.0748675
0.0748622
0.0748387
0.0748682
0.0747734
0.0748848
0.0748829
0.0747796
0.0748526
0.0748089
0.0748214
0.0748146
0.0747869
0.0748186
0.0747345
0.0748264
0.0748433
0.0747547
0.0748164
0.0747703
0.0747816
0.0747728
0.0747416
0.0747719
0.0746962
0.0747706
0.0748091
0.0747322
0.0747835
0.0747363
0.0747449
0.0747334
0.0746989
0.0747256
0.0746559
0.0747155
0.0747814
0.0747128
0.0747541
0.0747058
0.0747099
0.0746949
0.0746572
0.0746787
0.0746134
0.0746607
0.074761
0.074698
0.0747291
0.0746789
0.0746766
0.074657
0.0746157
0.0746308
0.0745683
0.0746051
0.0747484
0.0746886
0.074709
0.0746555
0.0746451
0.0746195
0.0745735
0.0745809
0.0745195
0.0745467
0.0747448
0.0746854
0.0746941
0.0746355
0.0746149
0.0745814
0.0745292
0.0745272
0.0744651
0.0744833
0.0747514
0.0746898
0.074685
0.0746188
0.0745857
0.0745418
0.0744812
0.0744678
0.0744028
0.0744128
0.0747698
0.0747031
0.0746825
0.0746056
0.0745568
0.0744995
0.0744275
0.0744003
0.0743299
0.0743316
0.0748016
0.074727
0.0746875
0.074596
0.0745279
0.0744532
0.0743659
0.0743216
0.0742425
0.0742352
0.0748482
0.0747636
0.074701
0.0745901
0.0744982
0.0744011
0.0742933
0.0742277
0.0741355
0.074118
0.0749109
0.0748146
0.0747239
0.0745878
0.0744664
0.0743407
0.0742057
0.0741127
0.0740017
0.0739719
0.0749899
0.0748817
0.0747568
0.074589
0.0744313
0.0742689
0.0740979
0.0739693
0.0738312
0.0737857
0.0750841
0.0749656
0.0748004
0.0745933
0.0743911
0.0741821
0.0739633
0.0737869
0.0736103
0.0735433
0.0751905
0.0750657
0.0748549
0.0746005
0.0743444
0.0740762
0.0737936
0.0735516
0.0733185
0.0732205
0.0753037
0.0751794
0.0749208
0.0746115
0.074291
0.0739476
0.0735788
0.073244
0.0729253
0.0727792
0.0754165
0.0753012
0.0749986
0.0746289
0.074233
0.0737949
0.0733089
0.0728384
0.0723838
0.072156
0.0755209
0.0754233
0.0750899
0.0746597
0.0741785
0.0736221
0.0729755
0.0723013
0.0716183
0.0712391
0.0756103
0.0755377
0.0751981
0.0747188
0.0741481
0.0734484
0.0725822
0.0715973
0.0705088
0.0697983
0.0756822
0.0756372
0.0753275
0.074831
0.0741811
0.0733152
0.0721511
0.0706875
0.0688656
0.0673437
0.0757391
0.0757173
0.0754858
0.0750447
0.0743637
0.0733301
0.0717914
0.0695933
0.0664951
0.062418
0.0757825
0.0757723
0.0756803
0.0754122
0.0747981
0.0736206
0.0716506
0.0682416
0.0633869
0.0513942
0.0759145
0.0759593
0.0756474
0.0755239
0.0754822
0.0754807
0.0755197
0.0756409
0.0759509
0.0759003
0.0754517
0.0754334
0.0754002
0.0754029
0.0753878
0.0753863
0.0753984
0.0753932
0.075424
0.0754387
0.0752814
0.0750937
0.0751784
0.0752347
0.0752362
0.0752345
0.0752296
0.0751704
0.0750829
0.0752672
0.0752258
0.0749863
0.0750858
0.0751143
0.0751119
0.0751098
0.0751081
0.0750761
0.0749732
0.0752088
0.0751506
0.074942
0.0750454
0.0750391
0.0750335
0.0750309
0.0750313
0.0750333
0.0749257
0.0751295
0.0750587
0.0748882
0.0749932
0.0749703
0.0749708
0.0749675
0.0749603
0.0749777
0.0748673
0.0750322
0.0749788
0.0748346
0.0749316
0.0748999
0.0749078
0.0749037
0.0748869
0.0749115
0.0748077
0.0749451
0.0749186
0.0747939
0.0748773
0.0748383
0.0748498
0.0748444
0.0748214
0.0748511
0.074759
0.0748751
0.0748714
0.0747635
0.0748335
0.0747895
0.0748013
0.0747944
0.0747674
0.0747993
0.0747182
0.0748152
0.074831
0.0747377
0.0747963
0.07475
0.0747603
0.0747514
0.0747211
0.0747518
0.074679
0.0747583
0.0747965
0.074715
0.0747633
0.0747159
0.0747233
0.0747118
0.0746784
0.0747053
0.0746388
0.0747023
0.0747691
0.0746964
0.0747346
0.0746862
0.074689
0.0746739
0.0746374
0.074659
0.0745972
0.0746472
0.0747494
0.0746827
0.0747108
0.0746606
0.074657
0.0746374
0.0745973
0.0746123
0.0745532
0.074592
0.0747379
0.0746748
0.0746923
0.0746391
0.0746273
0.0746016
0.0745569
0.0745638
0.0745056
0.0745343
0.0747356
0.0746733
0.0746792
0.0746211
0.0745992
0.0745655
0.0745145
0.0745118
0.0744524
0.0744721
0.0747437
0.0746796
0.0746722
0.0746065
0.074572
0.0745279
0.0744684
0.0744542
0.0743916
0.0744027
0.0747638
0.0746949
0.0746719
0.0745955
0.0745455
0.0744878
0.0744168
0.0743886
0.0743202
0.0743228
0.0747974
0.0747213
0.0746794
0.0745883
0.0745189
0.0744438
0.0743573
0.0743119
0.0742344
0.0742279
0.0748464
0.0747606
0.0746957
0.0745851
0.0744918
0.0743941
0.0742869
0.07422
0.0741291
0.0741123
0.0749119
0.0748148
0.0747217
0.0745857
0.0744628
0.0743364
0.0742017
0.0741073
0.0739972
0.0739681
0.0749941
0.0748855
0.0747583
0.0745903
0.0744309
0.0742676
0.0740967
0.0739665
0.0738291
0.0737842
0.0750918
0.0749734
0.0748061
0.0745984
0.0743944
0.0741843
0.0739653
0.0737872
0.073611
0.0735447
0.0752013
0.0750776
0.0748653
0.0746101
0.0743521
0.0740825
0.0737994
0.0735556
0.0733227
0.0732254
0.0753165
0.0751945
0.0749359
0.0746259
0.0743034
0.0739584
0.0735889
0.0732522
0.0729338
0.0727886
0.075429
0.0753173
0.0750178
0.0746481
0.0742501
0.0738099
0.0733229
0.0728508
0.0723967
0.0721703
0.0755296
0.075437
0.075111
0.0746823
0.0741985
0.0736392
0.0729914
0.0723161
0.0716345
0.0712576
0.0756114
0.0755446
0.075217
0.0747404
0.0741656
0.0734614
0.0725934
0.0716082
0.0705228
0.0698163
0.0756737
0.0756338
0.0753367
0.0748413
0.0741837
0.0733106
0.0721432
0.0706797
0.0688631
0.0673479
0.0757214
0.0757031
0.0754738
0.0750238
0.0743285
0.0732829
0.0717367
0.0695362
0.066442
0.0623754
0.0757581
0.0757462
0.0756277
0.0753279
0.0746892
0.0734932
0.0715088
0.0680894
0.0632309
0.0512524
0.0760336
0.0760766
0.075769
0.0756464
0.075605
0.0756035
0.0756422
0.0757626
0.0760684
0.0760197
0.0754478
0.0754246
0.0753966
0.075399
0.075384
0.0753824
0.0753945
0.0753896
0.0754151
0.075435
0.0752316
0.0750365
0.0751229
0.075177
0.0751785
0.0751767
0.0751719
0.0751149
0.0750256
0.0752175
0.0751961
0.0749567
0.0750576
0.0750841
0.075082
0.0750798
0.0750779
0.0750479
0.0749434
0.0751792
0.0751455
0.0749444
0.07505
0.0750433
0.0750384
0.0750358
0.0750354
0.0750379
0.0749279
0.0751244
0.0750661
0.0749058
0.0750128
0.0749905
0.0749916
0.0749884
0.0749805
0.0749974
0.074885
0.0750395
0.074993
0.0748598
0.0749584
0.074928
0.074936
0.0749319
0.074915
0.0749383
0.0748329
0.0749593
0.0749373
0.0748247
0.0749098
0.0748727
0.0748839
0.0748784
0.0748555
0.0748832
0.0747894
0.0748946
0.0748927
0.074797
0.0748693
0.0748276
0.074839
0.0748318
0.0748049
0.0748343
0.074751
0.0748379
0.0748534
0.0747712
0.0748322
0.0747884
0.0747985
0.0747892
0.0747589
0.0747869
0.0747117
0.0747823
0.0748188
0.0747471
0.0747978
0.0747528
0.07476
0.0747481
0.0747147
0.0747392
0.0746702
0.0747262
0.0747905
0.0747266
0.0747673
0.0747207
0.0747234
0.074708
0.0746714
0.0746909
0.0746268
0.0746705
0.0747697
0.0747109
0.0747413
0.0746924
0.0746889
0.074669
0.0746287
0.0746416
0.0745808
0.0746145
0.0747571
0.0747007
0.0747204
0.074668
0.0746566
0.0746306
0.0745856
0.0745907
0.0745312
0.0745558
0.0747538
0.0746972
0.0747051
0.0746474
0.0746261
0.074592
0.0745406
0.0745362
0.0744761
0.0744926
0.0747613
0.0747016
0.0746962
0.0746305
0.0745968
0.0745522
0.0744922
0.0744765
0.0744134
0.0744223
0.0747811
0.0747156
0.0746945
0.0746177
0.0745685
0.0745103
0.0744387
0.0744092
0.0743404
0.0743416
0.0748151
0.0747414
0.0747014
0.0746094
0.0745408
0.0744651
0.0743777
0.0743312
0.0742535
0.0742463
0.0748652
0.0747812
0.0747181
0.074606
0.0745132
0.0744148
0.0743066
0.0742387
0.0741477
0.0741309
0.0749329
0.0748371
0.0747458
0.0746077
0.0744849
0.0743573
0.0742216
0.0741262
0.0740161
0.0739876
0.0750187
0.0749112
0.0747856
0.0746147
0.0744547
0.07429
0.0741178
0.0739866
0.0738495
0.0738057
0.0751214
0.075004
0.0748381
0.0746271
0.0744217
0.0742097
0.0739891
0.0738099
0.0736342
0.0735697
0.0752367
0.0751145
0.0749038
0.0746451
0.0743847
0.0741126
0.0738275
0.0735826
0.0733508
0.073256
0.0753566
0.075238
0.0749823
0.0746693
0.0743434
0.0739951
0.0736232
0.0732855
0.072969
0.0728273
0.0754703
0.0753653
0.0750726
0.0747018
0.0742991
0.0738544
0.0733645
0.0728918
0.0724414
0.0722202
0.0755653
0.0754841
0.075173
0.0747462
0.0742558
0.0736898
0.0730383
0.0723635
0.0716894
0.0713214
0.0756326
0.0755818
0.0752804
0.0748083
0.074223
0.0735082
0.0726353
0.0716524
0.070582
0.0698919
0.0756716
0.0756506
0.075387
0.0748921
0.0742156
0.0733258
0.0721515
0.0706926
0.0689034
0.0674198
0.0756883
0.0756849
0.0754723
0.0750021
0.0742743
0.0732052
0.0716491
0.0694523
0.0663955
0.0623749
0.0756984
0.075677
0.0755026
0.0751317
0.0744476
0.0732317
0.0712394
0.0678177
0.062987
0.051011
0.0763674
0.0764071
0.0760761
0.0759577
0.0759178
0.0759163
0.0759535
0.0760696
0.0763989
0.076354
0.0755093
0.075457
0.0754234
0.0754311
0.075416
0.0754145
0.0754266
0.0754163
0.0754476
0.0754963
0.0751698
0.0749487
0.075035
0.0750909
0.075092
0.0750902
0.0750858
0.075027
0.0749377
0.0751553
0.0751115
0.0748524
0.0749549
0.0749829
0.0749811
0.0749789
0.0749766
0.0749451
0.0748391
0.0750943
0.0750581
0.074837
0.0749421
0.0749378
0.0749336
0.074931
0.0749298
0.0749299
0.0748204
0.075037
0.0749808
0.0747997
0.0749031
0.0748827
0.0748832
0.0748799
0.0748726
0.0748876
0.0747787
0.0749542
0.0749142
0.0747625
0.0748564
0.0748274
0.0748334
0.0748293
0.0748144
0.0748363
0.0747354
0.0748803
0.0748666
0.0747394
0.0748202
0.0747846
0.0747931
0.0747877
0.0747677
0.0747939
0.0747042
0.0748232
0.0748297
0.0747231
0.0747914
0.0747514
0.07476
0.074753
0.0747293
0.0747568
0.0746775
0.0747739
0.0747981
0.0747071
0.0747638
0.074722
0.0747291
0.07472
0.0746932
0.0747188
0.074648
0.0747256
0.0747709
0.0746915
0.0747376
0.0746946
0.0746987
0.0746869
0.074657
0.0746789
0.0746146
0.0746764
0.074749
0.0746783
0.0747145
0.0746697
0.0746693
0.0746539
0.0746206
0.0746378
0.0745782
0.0746264
0.0747337
0.074669
0.0746952
0.0746479
0.0746414
0.0746212
0.074584
0.0745951
0.0745385
0.0745752
0.0747261
0.0746646
0.0746804
0.0746294
0.0746149
0.0745886
0.0745463
0.0745499
0.0744941
0.0745211
0.0747274
0.0746663
0.074671
0.0746142
0.0745898
0.0745553
0.0745062
0.0745005
0.0744433
0.0744626
0.0747392
0.0746759
0.0746676
0.0746027
0.0745659
0.0745207
0.0744625
0.0744456
0.0743846
0.0743968
0.0747636
0.0746953
0.0746716
0.0745952
0.0745428
0.0744839
0.0744136
0.0743829
0.0743154
0.0743202
0.0748025
0.0747267
0.0746841
0.0745923
0.0745205
0.0744438
0.0743573
0.0743095
0.0742322
0.0742288
0.0748582
0.0747729
0.0747068
0.0745947
0.0744985
0.0743987
0.074291
0.0742215
0.0741304
0.0741174
0.0749326
0.0748366
0.0747414
0.0746029
0.0744762
0.074347
0.0742112
0.0741138
0.0740033
0.0739786
0.075027
0.0749203
0.0747895
0.0746176
0.0744532
0.0742863
0.0741134
0.0739797
0.0738421
0.0738021
0.0751403
0.0750253
0.0748523
0.0746394
0.0744289
0.0742139
0.0739921
0.0738098
0.0736338
0.0735731
0.0752682
0.0751504
0.074931
0.0746695
0.0744032
0.0741271
0.0738401
0.0735915
0.0733598
0.073269
0.0754006
0.07529
0.0750264
0.0747097
0.0743768
0.0740231
0.0736486
0.0733066
0.0729914
0.0728545
0.0755218
0.0754319
0.0751383
0.0747639
0.0743526
0.0739003
0.0734068
0.0729297
0.0724832
0.072269
0.0756142
0.0755577
0.0752657
0.0748388
0.0743361
0.0737587
0.073102
0.072424
0.0717598
0.0714038
0.0756683
0.0756488
0.0754025
0.0749399
0.0743354
0.0736017
0.0727213
0.0717386
0.0706926
0.0700276
0.0756914
0.0757096
0.075536
0.0750594
0.0743512
0.0734289
0.072243
0.0707915
0.0690626
0.0676377
0.075677
0.0757139
0.0755926
0.0751344
0.0743589
0.0732395
0.0716641
0.0694831
0.0665565
0.0627021
0.0756441
0.075618
0.0754281
0.0749852
0.0742106
0.0729302
0.0709148
0.067521
0.0629095
0.0513976
0.0760864
0.0763645
0.076029
0.0759085
0.0758707
0.0758692
0.0759041
0.0760222
0.0763553
0.0760721
0.0755228
0.0755075
0.0754448
0.0754473
0.0754337
0.075432
0.0754425
0.0754374
0.0754976
0.0755095
0.0754042
0.0751682
0.075229
0.0752771
0.0752786
0.0752767
0.0752714
0.0752203
0.0751567
0.0753898
0.0753735
0.0751097
0.0751931
0.0752208
0.0752203
0.075218
0.0752139
0.0751825
0.075096
0.0753567
0.0752754
0.0750559
0.0751415
0.0751443
0.0751412
0.0751382
0.0751357
0.0751283
0.0750392
0.0752549
0.0751524
0.0749778
0.0750607
0.0750505
0.0750498
0.0750459
0.0750396
0.0750441
0.0749568
0.0751267
0.0750513
0.0749103
0.0749859
0.0749684
0.0749708
0.0749661
0.0749544
0.074965
0.0748836
0.0750186
0.0749768
0.0748615
0.0749282
0.0749048
0.0749088
0.0749032
0.0748876
0.0749019
0.0748275
0.0749348
0.0749182
0.0748232
0.0748809
0.074853
0.074857
0.0748503
0.0748317
0.0748474
0.0747793
0.0748639
0.0748691
0.0747898
0.0748383
0.074807
0.0748098
0.0748011
0.0747796
0.0747944
0.0747325
0.0747987
0.0748285
0.0747602
0.0747994
0.0747654
0.0747656
0.0747541
0.0747292
0.0747415
0.0746847
0.074737
0.0747964
0.0747352
0.0747654
0.0747285
0.0747248
0.0747096
0.0746809
0.0746895
0.0746361
0.074678
0.0747732
0.0747162
0.0747374
0.0746969
0.0746877
0.0746673
0.0746342
0.0746378
0.0745861
0.0746198
0.0747593
0.074704
0.0747156
0.0746702
0.0746535
0.0746267
0.0745881
0.0745852
0.0745338
0.07456
0.0747558
0.0746997
0.0747006
0.0746485
0.0746223
0.0745872
0.0745413
0.0745303
0.0744774
0.0744966
0.0747642
0.0747048
0.0746933
0.0746321
0.0745938
0.074548
0.0744924
0.0744712
0.0744147
0.0744269
0.0747863
0.0747215
0.074695
0.0746215
0.0745679
0.0745082
0.0744399
0.0744057
0.0743429
0.0743477
0.0748245
0.0747522
0.074707
0.0746171
0.0745443
0.0744664
0.0743815
0.0743309
0.0742586
0.0742551
0.0748813
0.0747996
0.0747307
0.0746195
0.0745223
0.0744213
0.0743147
0.0742431
0.0741571
0.0741439
0.0749589
0.074867
0.0747682
0.0746296
0.074502
0.0743713
0.0742361
0.0741376
0.0740322
0.0740071
0.0750585
0.0749573
0.0748216
0.0746485
0.074483
0.0743145
0.0741418
0.0740077
0.0738753
0.0738349
0.0751784
0.075072
0.0748929
0.0746773
0.0744656
0.0742489
0.0740268
0.073845
0.0736746
0.0736134
0.0753121
0.0752081
0.0749835
0.074718
0.0744502
0.0741726
0.0738852
0.0736379
0.0734129
0.0733218
0.0754462
0.0753555
0.0750935
0.0747735
0.074439
0.0740841
0.0737096
0.0733703
0.0730639
0.0729272
0.0755613
0.0754947
0.0752206
0.074849
0.0744363