/*--------------------------------*- C++ -*----------------------------------*\
| =========                 |                                                 |
| \\      /  F ield         | OpenFOAM: The Open Source CFD Toolbox           |
|  \\    /   O peration     | Version:  4.1                                   |
|   \\  /    A nd           | Web:      www.OpenFOAM.org                      |
|    \\/     M anipulation  |                                                 |
\*---------------------------------------------------------------------------*/
FoamFile
{
    version     2.0;
    format      ascii;
    class       surfaceScalarField;
    location    "1000";
    object      phi;
}
// * * * * * * * * * * * * * * * * * * * * * * * * * * * * * * * * * * * * * //

dimensions      [0 3 -1 0 0 0 0];

internalField   nonuniform List<scalar> 
33700
(
4.95756e-05
0.000900922
4.95103e-05
2.30746e-05
0.000971389
5.51207e-05
8.43877e-06
0.000957424
5.72219e-05
3.15047e-06
0.000948244
5.70553e-05
7.94919e-08
0.000945795
5.72874e-05
-2.98989e-06
0.000945792
5.72885e-05
-8.29617e-06
0.000948261
5.70553e-05
-2.29726e-05
0.000957462
5.72213e-05
-4.95063e-05
0.000971423
5.51153e-05
0.000900896
4.96003e-05
3.12481e-05
0.00083857
3.11192e-05
2.37457e-05
0.000940521
3.83888e-05
1.34481e-05
0.0009274
4.03449e-05
6.13956e-06
0.000915905
3.96738e-05
1.86493e-07
0.000911734
4.00411e-05
-5.72092e-06
0.00091167
4.00542e-05
-1.30682e-05
0.000915975
3.96542e-05
-2.3428e-05
0.000927573
4.02642e-05
-3.08986e-05
0.000940593
3.83113e-05
0.000838806
3.11971e-05
1.61551e-05
0.000806483
1.59438e-05
1.71131e-05
0.000916642
2.29398e-05
1.1945e-05
0.00090835
2.42408e-05
6.12728e-06
0.000898177
2.35707e-05
3.0497e-07
0.000893595
2.39862e-05
-5.35277e-06
0.000893349
2.4001e-05
-1.12418e-05
0.000898325
2.35569e-05
-1.66139e-05
0.000908781
2.41767e-05
-1.57079e-05
0.000916788
2.29092e-05
0.000807216
1.58871e-05
8.93869e-06
0.000788933
8.62217e-06
1.24185e-05
0.00089935
1.38272e-05
9.8926e-06
0.000897175
1.37193e-05
5.35643e-06
0.000889042
1.3691e-05
4.76974e-07
0.000884303
1.41909e-05
-4.16805e-06
0.00088375
1.42605e-05
-8.82345e-06
0.000889293
1.36981e-05
-1.17125e-05
0.00089801
1.36686e-05
-8.38415e-06
0.000899582
1.38843e-05
0.00079029
8.54673e-06
5.66758e-06
0.000778081
5.19088e-06
9.60196e-06
0.000886486
8.93951e-06
8.67744e-06
0.00089094
7.17088e-06
4.88239e-06
0.000884689
8.16033e-06
7.05262e-07
0.00087977
8.72139e-06
-3.20719e-06
0.000878893
8.77676e-06
-7.18094e-06
0.000885094
8.17779e-06
-8.59696e-06
0.000892265
7.16484e-06
-4.88009e-06
0.000886804
9.06553e-06
0.000780296
5.11874e-06
4.43894e-06
0.000769918
3.72903e-06
7.524e-06
0.000876691
6.71471e-06
7.62968e-06
0.000887194
3.64586e-06
4.57208e-06
0.000882284
5.46877e-06
1.09894e-06
0.000877311
5.93663e-06
-2.38307e-06
0.000876347
6.03181e-06
-5.68266e-06
0.000882909
5.48585e-06
-6.01641e-06
0.000888954
3.64551e-06
-3.31076e-06
0.000877115
6.9861e-06
0.000773264
3.72553e-06
4.24666e-06
0.000762444
3.22987e-06
5.99429e-06
0.000868965
5.98071e-06
6.6843e-06
0.000884511
1.99532e-06
4.35277e-06
0.000880036
4.58147e-06
1.63623e-06
0.000875194
4.83555e-06
-1.50031e-06
0.000874564
4.92049e-06
-4.14031e-06
0.000880971
4.57818e-06
-3.88253e-06
0.000886629
2.06886e-06
-2.61729e-06
0.00086946
6.39405e-06
0.000767362
3.28958e-06
4.46685e-06
0.000754899
3.08228e-06
5.09049e-06
0.000862577
5.76772e-06
6.14517e-06
0.000882316
1.1424e-06
4.35453e-06
0.000877523
4.30727e-06
2.25108e-06
0.000872999
4.30279e-06
-4.82766e-07
0.000872923
4.37833e-06
-2.77166e-06
0.000878928
4.33638e-06
-2.22323e-06
0.000884898
1.18692e-06
-2.19749e-06
0.000863195
6.24579e-06
0.000761986
3.18592e-06
4.81926e-06
0.000747101
2.98486e-06
4.63766e-06
0.000857097
5.66652e-06
6.12987e-06
0.000880274
5.55447e-07
4.67892e-06
0.000874815
4.1653e-06
2.96588e-06
0.000870835
3.88455e-06
5.94285e-07
0.000871384
3.91928e-06
-1.55797e-06
0.000876909
4.17929e-06
-7.68296e-07
0.000883572
5.44958e-07
-1.78307e-06
0.000858053
6.16593e-06
0.000757065
3.14749e-06
5.26333e-06
0.000738988
2.85978e-06
4.57465e-06
0.000852203
5.59285e-06
6.54581e-06
0.000878117
1.95012e-07
5.31792e-06
0.000872047
4.00674e-06
3.88975e-06
0.000868837
3.43873e-06
1.78563e-06
0.000870014
3.4865e-06
-3.25246e-07
0.00087503
4.00251e-06
5.50741e-07
0.000882606
1.02334e-07
-1.24185e-06
0.000853784
6.07516e-06
0.000752766
3.06805e-06
5.85093e-06
0.000730458
2.69339e-06
4.95389e-06
0.000847677
5.43614e-06
7.34561e-06
0.000875782
-4.29982e-08
6.25e-06
0.000869284
3.87352e-06
5.03675e-06
0.00086701
3.05588e-06
3.28607e-06
0.000868766
3.0148e-06
9.61925e-07
0.000873484
3.88594e-06
1.88401e-06
0.000881981
-2.80882e-07
-5.63535e-07
0.000850311
5.93633e-06
0.000749241
2.97424e-06
6.68258e-06
0.000721309
2.48435e-06
5.79554e-06
0.000843318
5.26198e-06
8.54171e-06
0.000873278
-2.26114e-07
7.54774e-06
0.000866575
3.71937e-06
6.54454e-06
0.000865311
2.7204e-06
5.0258e-06
0.000867642
2.66125e-06
2.50901e-06
0.000872241
3.7772e-06
3.36672e-06
0.00088164
-4.998e-07
1.99978e-07
0.000847735
5.76094e-06
0.000746512
2.94349e-06
7.84468e-06
0.000711239
2.2454e-06
7.17737e-06
0.000838956
5.04722e-06
1.01758e-05
0.000870614
-3.16911e-07
9.35971e-06
0.000863839
3.57088e-06
8.57121e-06
0.000863663
2.45613e-06
7.09922e-06
0.000866739
2.39516e-06
4.42503e-06
0.000871247
3.68868e-06
5.04645e-06
0.000881675
-6.36934e-07
1.09177e-06
0.000846188
5.52121e-06
0.000744643
2.97581e-06
9.41338e-06
0.00069982
2.02833e-06
9.14127e-06
0.000834434
4.81396e-06
1.24859e-05
0.000867657
-3.68602e-07
1.18937e-05
0.000861048
3.40213e-06
1.12182e-05
0.000862145
2.21263e-06
9.77e-06
0.000866129
2.07735e-06
6.73511e-06
0.000870729
3.57286e-06
6.98059e-06
0.000882225
-7.74976e-07
2.1629e-06
0.000845782
5.24521e-06
0.000743814
3.00721e-06
1.15046e-05
0.000686475
1.86439e-06
1.18536e-05
0.000829553
4.55312e-06
1.56267e-05
0.000864293
-3.90579e-07
1.52939e-05
0.000858188
3.21099e-06
1.47237e-05
0.000860725
2.00936e-06
1.31885e-05
0.000865881
1.80294e-06
9.67516e-06
0.000870824
3.43839e-06
9.28138e-06
0.000883495
-8.55894e-07
3.46325e-06
0.000846661
4.96079e-06
0.000744279
3.01451e-06
1.42664e-05
0.000670471
1.76246e-06
1.55149e-05
0.000824009
4.31649e-06
1.97803e-05
0.000860393
-3.46422e-07
1.97454e-05
0.000855196
3.04501e-06
1.92833e-05
0.00085931
1.89465e-06
1.75915e-05
0.000865978
1.61387e-06
1.35152e-05
0.000871592
3.32802e-06
1.21942e-05
0.000885688
-8.50621e-07
5.10359e-06
0.000849059
4.71402e-06
0.000746345
3.05327e-06
1.78702e-05
0.00065086
1.76631e-06
2.03954e-05
0.000817338
4.16566e-06
2.52859e-05
0.000855745
-2.25219e-07
2.55836e-05
0.00085197
2.94484e-06
2.5214e-05
0.000857806
1.89018e-06
2.32728e-05
0.000866431
1.50506e-06
1.84943e-05
0.000873146
3.24323e-06
1.59415e-05
0.000889019
-7.5811e-07
7.21311e-06
0.000853288
4.5221e-06
0.000750398
3.17694e-06
2.25181e-05
0.000626412
1.95415e-06
2.68887e-05
0.000808799
4.18816e-06
3.25434e-05
0.000850044
6.33377e-08
3.32311e-05
0.000848356
2.94185e-06
3.29853e-05
0.000856069
1.99781e-06
3.06482e-05
0.000867248
1.53703e-06
2.49058e-05
0.000875653
3.25378e-06
2.07555e-05
0.000893746
-5.55427e-07
9.93947e-06
0.000859714
4.41361e-06
0.000756928
3.42704e-06
2.84165e-05
0.000595546
2.47088e-06
3.54661e-05
0.000797255
4.51142e-06
4.20482e-05
0.000842858
6.18832e-07
4.3263e-05
0.000844064
3.0906e-06
4.30553e-05
0.000853993
2.29796e-06
4.02057e-05
0.000868401
1.71222e-06
3.32281e-05
0.000879291
3.35738e-06
2.70084e-05
0.000900204
-2.18934e-07
1.34837e-05
0.000868805
4.45549e-06
0.000766567
3.86134e-06
3.57365e-05
0.000556319
3.51024e-06
4.66792e-05
0.000781022
5.30497e-06
5.44499e-05
0.000833555
1.54492e-06
5.63352e-05
0.000838692
3.49827e-06
5.60755e-05
0.00085139
2.87434e-06
5.25955e-05
0.000869765
2.12906e-06
4.40523e-05
0.000884188
3.66178e-06
3.52064e-05
0.000908698
3.70966e-07
1.81258e-05
0.000881184
4.72411e-06
0.000780146
4.56262e-06
4.45489e-05
0.000506468
5.31877e-06
6.11323e-05
0.000757642
6.80957e-06
7.05194e-05
0.00082118
2.99878e-06
7.31639e-05
0.000831749
4.30854e-06
7.29076e-05
0.000847862
3.79444e-06
6.86667e-05
0.000871096
2.92174e-06
5.81815e-05
0.000890408
4.27942e-06
4.60405e-05
0.000919537
1.31945e-06
2.42698e-05
0.000897646
5.3292e-06
0.000798793
5.63795e-06
5.46841e-05
0.000443649
8.14925e-06
7.93389e-05
0.00072369
9.30702e-06
9.11318e-05
0.000804179
5.21671e-06
9.47011e-05
0.000822474
5.71435e-06
9.45666e-05
0.000842779
5.22585e-06
8.9567e-05
0.000871878
4.22776e-06
7.67756e-05
0.000897843
5.36948e-06
6.04608e-05
0.000933118
2.74975e-06
3.2489e-05
0.000919218
6.41722e-06
0.000824033
7.26227e-06
6.54917e-05
0.00036603
1.21414e-05
0.00010137
0.000674759
1.30618e-05
0.0001171
0.000779926
8.52993e-06
0.000122096
0.00080951
7.97394e-06
0.000122347
0.000835146
7.3877e-06
0.000116753
0.000871234
6.24657e-06
0.000101424
0.000906078
7.10336e-06
7.98616e-05
0.00094985
4.84206e-06
4.36704e-05
0.000947231
8.19307e-06
0.000858048
9.66501e-06
7.54827e-05
0.000273416
1.71516e-05
0.000126166
0.000605928
1.81593e-05
0.000148818
0.000744023
1.32571e-05
0.000156571
0.000790288
1.14734e-05
0.000157893
0.000823249
1.05773e-05
0.000152229
0.000867649
9.25284e-06
0.000134413
0.000914144
9.75598e-06
0.000106452
0.000969972
7.84521e-06
5.92164e-05
0.000983503
1.09701e-05
0.000904068
1.3201e-05
8.18846e-05
0.000169324
2.22376e-05
0.00015066
0.000513047
2.41184e-05
0.000185481
0.000689527
1.96801e-05
0.000199181
0.000759826
1.67633e-05
0.00020323
0.00080394
1.52593e-05
0.00019872
0.000858504
1.36523e-05
0.000179075
0.000920054
1.37333e-05
0.00014373
0.000993176
1.2139e-05
8.16702e-05
0.00103038
1.51829e-05
0.000967357
1.83765e-05
7.97259e-05
6.46898e-05
2.49654e-05
0.000168481
0.000394749
2.95624e-05
0.000223905
0.000606198
2.79111e-05
0.000250251
0.000708744
2.47362e-05
0.000260783
0.000771238
2.21644e-05
0.000259971
0.000839368
1.99407e-05
0.000240429
0.000920089
1.94982e-05
0.000197452
0.00101792
1.82223e-05
0.000115212
0.00109115
2.14478e-05
0.00105662
2.59385e-05
5.97083e-05
-1.7901e-05
2.29777e-05
0.000169361
0.000253252
3.18727e-05
0.000256825
0.000481385
3.7359e-05
0.000307385
0.000621736
3.6447e-05
0.000332339
0.000713628
3.26483e-05
0.000340586
0.000802134
2.89742e-05
0.000325776
0.000907229
2.76541e-05
0.000277499
0.00103948
2.66893e-05
0.000170433
0.00116754
3.06646e-05
0.00118989
3.71395e-05
1.4694e-05
-5.92943e-05
2.6825e-05
0.000144286
8.64342e-05
3.72762e-05
0.000273617
0.00030263
4.94399e-05
0.000364458
0.000478379
5.25159e-05
0.000418701
0.000611424
4.79504e-05
0.000446761
0.000732158
4.18989e-05
0.000446171
0.00086898
3.88058e-05
0.000399847
0.00104786
3.79309e-05
0.000264724
0.00125906
4.35674e-05
0.00140115
5.34463e-05
-3.96473e-06
-8.50939e-05
2.98806e-05
0.00010079
-6.71073e-05
4.88462e-05
0.000253837
8.07363e-05
6.88583e-05
0.000394838
0.000260744
7.6621e-05
0.000504379
0.000430789
7.10646e-05
0.000578645
0.000596861
6.09834e-05
0.000617282
0.000775795
5.45069e-05
0.00058884
0.00102341
5.28351e-05
0.000469026
0.00131709
6.17307e-05
0.00179176
7.83724e-05
6.84491e-05
8.4081e-06
-0.000161817
0.000164883
2.77613e-05
-0.000191259
0.000273089
6.40054e-05
-9.14962e-05
0.000403644
9.03401e-05
3.97485e-05
0.000557982
9.50234e-05
0.000181309
0.000708552
8.51494e-05
0.000361032
0.000843373
7.31999e-05
0.00056768
0.000892547
6.87807e-05
0.000905386
0.0008774
7.76413e-05
0.00125456
0.00011058
0.00255857
5.51752e-05
0.000971325
2.30107e-05
2.10409e-05
0.00106827
2.09874e-05
6.58844e-06
0.00105018
2.1491e-05
2.31908e-06
0.00103968
2.16465e-05
6.46288e-08
0.00103778
2.17658e-05
-2.20068e-06
0.00103779
2.17643e-05
-6.49515e-06
0.00103971
2.1644e-05
-2.10538e-05
0.0010503
2.14874e-05
-5.54886e-05
0.00106854
2.10085e-05
0.000971038
2.3076e-05
3.84945e-05
0.000940353
2.36017e-05
2.28327e-05
0.00109965
2.26758e-05
1.29518e-05
0.00107765
2.27728e-05
5.83506e-06
0.00106346
2.30205e-05
2.02467e-07
0.00106026
2.31996e-05
-5.50602e-06
0.0010604
2.31684e-05
-1.26863e-05
0.00106357
2.2988e-05
-2.26043e-05
0.00107773
2.27586e-05
-3.81057e-05
0.00109969
2.26828e-05
0.000940485
2.36514e-05
2.31243e-05
0.000916301
1.68843e-05
1.70131e-05
0.00111201
1.67128e-05
1.15172e-05
0.00109103
1.63676e-05
5.74148e-06
0.00107629
1.65298e-05
4.00395e-07
0.00107285
1.67479e-05
-5.07071e-06
0.00107329
1.65893e-05
-1.09135e-05
0.00107649
1.64939e-05
-1.64249e-05
0.00109099
1.64545e-05
-2.25641e-05
0.00111202
1.67369e-05
0.000916943
1.68735e-05
1.41384e-05
0.00089874
1.20597e-05
1.4169e-05
0.00111212
1.3707e-05
9.5625e-06
0.00109636
1.30216e-05
4.72852e-06
0.00108171
1.31206e-05
6.11178e-07
0.00107775
1.34342e-05
-3.68897e-06
0.00107867
1.32009e-05
-8.62496e-06
0.00108205
1.31003e-05
-1.31997e-05
0.00109607
1.31807e-05
-1.34046e-05
0.00111245
1.36735e-05
0.000900026
1.20691e-05
9.43617e-06
0.000885495
9.01876e-06
1.30139e-05
0.00110515
1.23499e-05
8.59558e-06
0.00109675
1.12195e-05
4.29618e-06
0.00108271
1.14852e-05
8.54668e-07
0.0010781
1.18324e-05
-2.81934e-06
0.00107957
1.15843e-05
-7.27108e-06
0.00108323
1.14751e-05
-1.16325e-05
0.00109624
1.13785e-05
-8.42778e-06
0.00110608
1.22598e-05
0.000887644
9.08361e-06
7.48843e-06
0.000875169
6.58946e-06
1.20938e-05
0.00109604
1.12463e-05
7.8535e-06
0.00109519
9.47547e-06
4.16286e-06
0.00108213
9.76973e-06
1.11519e-06
0.0010771
1.00176e-05
-2.11384e-06
0.00107887
9.99301e-06
-6.04849e-06
0.00108291
9.76811e-06
-1.03779e-05
0.00109483
9.42114e-06
-6.21251e-06
0.00109774
1.11818e-05
0.000878456
6.71349e-06
7.0494e-06
0.00086673
4.64497e-06
1.15159e-05
0.00108718
1.04097e-05
7.32026e-06
0.00109345
7.96845e-06
4.142e-06
0.00108179
8.1367e-06
1.43707e-06
0.00107651
8.17252e-06
-1.352e-06
0.00107815
8.46841e-06
-4.85607e-06
0.00108289
8.13625e-06
-9.244e-06
0.00109362
7.69654e-06
-5.45067e-06
0.00109008
1.02848e-05
0.000871438
4.8706e-06
7.15156e-06
0.000859379
3.31023e-06
1.1287e-05
0.00107902
9.8186e-06
7.12094e-06
0.0010918
6.99787e-06
4.30651e-06
0.00108173
7.23007e-06
1.88321e-06
0.00107629
6.9967e-06
-5.97649e-07
0.00107765
7.40652e-06
-3.76071e-06
0.00108316
7.2658e-06
-8.29919e-06
0.00109277
6.59988e-06
-5.06584e-06
0.00108345
9.66795e-06
0.000865996
3.57702e-06
7.40421e-06
0.000852612
2.37819e-06
1.13238e-05
0.00107143
9.37594e-06
7.30727e-06
0.00109026
6.1519e-06
4.73911e-06
0.00108176
6.75373e-06
2.4766e-06
0.0010762
6.28198e-06
1.52731e-07
0.00107731
6.62398e-06
-2.81174e-06
0.00108357
6.7752e-06
-7.52718e-06
0.00109229
5.76709e-06
-4.69458e-06
0.00107745
9.35566e-06
0.000861913
2.55048e-06
7.7991e-06
0.00084598
1.72378e-06
1.14933e-05
0.00106443
8.93037e-06
7.79101e-06
0.00108885
5.34504e-06
5.4304e-06
0.00108172
6.44389e-06
3.26412e-06
0.00107609
5.76178e-06
1.01395e-06
0.00107703
6.05618e-06
-1.88423e-06
0.00108404
6.46874e-06
-6.61991e-06
0.00109201
5.15365e-06
-4.21013e-06
0.00107215
8.99017e-06
0.00085902
1.76761e-06
8.3204e-06
0.000839134
1.24992e-06
1.18378e-05
0.00105791
8.47632e-06
8.5621e-06
0.00108744
4.67897e-06
6.38569e-06
0.00108157
6.24832e-06
4.30049e-06
0.00107596
5.31238e-06
2.02824e-06
0.00107693
5.43315e-06
-8.00518e-07
0.00108443
6.35625e-06
-5.53344e-06
0.00109196
4.53387e-06
-3.55748e-06
0.00106755
8.58293e-06
0.000857245
1.20759e-06
9.05732e-06
0.000831754
8.38861e-07
1.24362e-05
0.00105182
8.00815e-06
9.64408e-06
0.00108588
4.16524e-06
7.66545e-06
0.00108123
6.07857e-06
5.64551e-06
0.00107588
4.86074e-06
3.34864e-06
0.00107708
4.84489e-06
4.57153e-07
0.00108501
6.12425e-06
-4.24464e-06
0.00109227
3.91551e-06
-2.78016e-06
0.00106368
8.19532e-06
0.000856622
8.02635e-07
1.00173e-05
0.000823507
5.06149e-07
1.33664e-05
0.00104599
7.55351e-06
1.12018e-05
0.00108395
3.81885e-06
9.35865e-06
0.0010808
5.87998e-06
7.38743e-06
0.0010759
4.44915e-06
5.07658e-06
0.00107741
4.41201e-06
1.98809e-06
0.00108596
5.85746e-06
-2.70768e-06
0.00109299
3.3715e-06
-1.83115e-06
0.00106056
7.78946e-06
0.000857241
5.42721e-07
1.12706e-05
0.000814012
2.8483e-07
1.47592e-05
0.00104022
7.13128e-06
1.32697e-05
0.00108162
3.48577e-06
1.15846e-05
0.00108018
5.75079e-06
9.68558e-06
0.00107583
4.21647e-06
7.28041e-06
0.00107786
4.06812e-06
3.98924e-06
0.00108711
5.75186e-06
-8.3972e-07
0.00109415
2.91882e-06
-7.32184e-07
0.00105834
7.38357e-06
0.000859152
3.81073e-07
1.29239e-05
0.000802789
1.93638e-07
1.67516e-05
0.00103423
6.74697e-06
1.59987e-05
0.00107879
3.22694e-06
1.45025e-05
0.00107925
5.67177e-06
1.26666e-05
0.00107566
4.0514e-06
1.01395e-05
0.00107838
3.84054e-06
6.54549e-06
0.00108847
5.70312e-06
1.4684e-06
0.00109578
2.62193e-06
5.6513e-07
0.00105725
6.97752e-06
0.000862414
3.35643e-07
1.51191e-05
0.00078928
1.82183e-07
1.95394e-05
0.00102771
6.44554e-06
1.95975e-05
0.00107532
3.09462e-06
1.83324e-05
0.00107797
5.61953e-06
1.65389e-05
0.00107547
3.91608e-06
1.38355e-05
0.00107912
3.61939e-06
9.8114e-06
0.00109025
5.60297e-06
4.33017e-06
0.00109805
2.38872e-06
2.14265e-06
0.0010576
6.57536e-06
0.000867206
4.2103e-07
1.80221e-05
0.000772781
2.72281e-07
2.33593e-05
0.00102029
6.26965e-06
2.43099e-05
0.00107109
3.07825e-06
2.33433e-05
0.00107626
5.64687e-06
2.15759e-05
0.00107529
3.87062e-06
1.86191e-05
0.00108017
3.43648e-06
1.39966e-05
0.00109267
5.4744e-06
7.90608e-06
0.00110123
2.18203e-06
4.12363e-06
0.00105971
6.21771e-06
0.000873905
6.19212e-07
2.1821e-05
0.000752413
5.27075e-07
2.85092e-05
0.00101155
6.26515e-06
3.04658e-05
0.00106596
3.26152e-06
2.98785e-05
0.00107403
5.79061e-06
2.81097e-05
0.00107516
3.92019e-06
2.48206e-05
0.00108162
3.40303e-06
1.94281e-05
0.00109586
5.47918e-06
1.24304e-05
0.00110559
2.10441e-06
6.62285e-06
0.00106403
5.92971e-06
0.000883054
9.19025e-07
2.67157e-05
0.00072711
1.08283e-06
3.53931e-05
0.00100089
6.51692e-06
3.85019e-05
0.00105978
3.71633e-06
3.83543e-05
0.00107122
6.07331e-06
3.6582e-05
0.00107507
4.19367e-06
3.28544e-05
0.00108358
3.50907e-06
2.64846e-05
0.00110004
5.58032e-06
1.82021e-05
0.0011115
2.17873e-06
9.82514e-06
0.00107115
5.73664e-06
0.000895359
1.39884e-06
3.28934e-05
0.000695615
2.13519e-06
4.44691e-05
0.000987469
7.16611e-06
4.89222e-05
0.00105241
4.48448e-06
4.93183e-05
0.00106777
6.5759e-06
4.75807e-05
0.00107493
4.77663e-06
4.32889e-05
0.00108619
3.83691e-06
3.56747e-05
0.0011055
5.83359e-06
2.56212e-05
0.00111951
2.43748e-06
1.39539e-05
0.00108186
5.70592e-06
0.000911779
2.11501e-06
4.05093e-05
0.000656491
3.95502e-06
5.6271e-05
0.000970101
8.43255e-06
6.23604e-05
0.00104364
5.69281e-06
6.34545e-05
0.00106357
7.43938e-06
6.17757e-05
0.00107476
5.65878e-06
5.68476e-05
0.00108962
4.44938e-06
4.77199e-05
0.00111264
6.29791e-06
3.52453e-05
0.0011304
2.93321e-06
1.93504e-05
0.00109717
5.93338e-06
0.000933667
3.11802e-06
4.96097e-05
0.000608181
6.87037e-06
7.13409e-05
0.000947072
1.06195e-05
7.9579e-05
0.00103306
7.57513e-06
8.15991e-05
0.00105842
8.86051e-06
8.01123e-05
0.00107446
7.03395e-06
7.45193e-05
0.00109399
5.46981e-06
6.35737e-05
0.00112187
7.10345e-06
4.78847e-05
0.00114507
3.78994e-06
2.64761e-05
0.00111848
6.547e-06
0.000962881
4.54056e-06
5.99908e-05
0.000549131
1.12204e-05
9.00689e-05
0.000915962
1.41058e-05
0.000101443
0.00101976
1.04615e-05
0.000104767
0.00105201
1.10673e-05
0.000103778
0.00107368
9.17574e-06
9.76514e-05
0.00109922
7.16719e-06
8.46425e-05
0.00113358
8.43378e-06
6.48247e-05
0.00116454
5.21368e-06
3.61438e-05
0.00114766
7.71064e-06
0.00100212
6.5852e-06
7.10062e-05
0.000478087
1.72083e-05
0.000112419
0.000873362
1.93565e-05
0.000128713
0.00100199
1.47435e-05
0.000134127
0.00104375
1.43357e-05
0.000134265
0.00107182
1.2318e-05
0.000128071
0.00110488
9.80672e-06
0.000112943
0.00114797
1.05113e-05
8.79602e-05
0.00119003
7.36151e-06
4.9557e-05
0.00118738
9.67165e-06
0.00105535
9.53539e-06
8.12088e-05
0.000394715
2.44225e-05
0.000137277
0.000814935
2.64872e-05
0.000161794
0.000976192
2.09714e-05
0.000171015
0.00103211
1.91881e-05
0.000173461
0.00106782
1.68287e-05
0.000168291
0.00110999
1.37289e-05
0.000151553
0.00116476
1.37009e-05
0.000120476
0.0012227
1.05637e-05
6.9001e-05
0.00124131
1.27383e-05
0.00112893
1.37981e-05
8.7885e-05
0.000300621
3.12036e-05
0.000161829
0.000735637
3.49281e-05
0.000200193
0.000936094
2.96539e-05
0.000216893
0.00101366
2.64921e-05
0.000223872
0.00105971
2.33057e-05
0.000221823
0.00111263
1.93602e-05
0.000205095
0.00118265
1.83463e-05
0.000167661
0.00126319
1.51688e-05
9.82303e-05
0.00131483
1.73595e-05
0.0012332
1.9901e-05
8.70177e-05
0.000202294
3.43327e-05
0.000180652
0.000631567
4.23255e-05
0.00024119
0.000872214
4.07118e-05
0.000272494
0.000981574
3.72443e-05
0.000288529
0.0010437
3.26347e-05
0.000293521
0.00110941
2.72158e-05
0.000280619
0.00119844
2.47808e-05
0.000238736
0.0013103
2.147e-05
0.000147091
0.00141309
2.40334e-05
0.00138883
2.85887e-05
7.26799e-05
0.000123393
3.31307e-05
0.000187592
0.0005064
4.75595e-05
0.000280006
0.000775782
5.34768e-05
0.000337155
0.000925265
5.16893e-05
0.000370615
0.00101311
4.50964e-05
0.00038967
0.00109519
3.70683e-05
0.000388662
0.00120581
3.24471e-05
0.000349234
0.00135879
2.88494e-05
0.000231667
0.00154151
3.26837e-05
0.00163359
4.03256e-05
5.05281e-05
7.90527e-05
2.38462e-05
0.000176414
0.000378798
5.06076e-05
0.000303946
0.000650692
6.64371e-05
0.000402181
0.000835322
6.83404e-05
0.000470111
0.000956601
5.96445e-05
0.000516633
0.00106221
4.74398e-05
0.000544266
0.00119333
3.93363e-05
0.000520127
0.00140086
3.48781e-05
0.000418922
0.00166239
4.20217e-05
0.00207542
5.54359e-05
6.3826e-05
-9.78463e-06
3.36605e-05
0.00017756
3.45429e-05
0.000258342
0.000315948
6.062e-05
0.000515699
0.000450566
6.83348e-05
0.00072269
0.000569399
6.03018e-05
0.000872455
0.000670264
4.53628e-05
0.00100109
0.000767614
3.36863e-05
0.00113544
0.000800765
2.80538e-05
0.00140839
0.000796243
4.05014e-05
0.001704
6.95428e-05
0.00291268
5.7273e-05
0.000957378
8.36121e-06
2.15427e-05
0.00105019
6.52914e-06
6.45635e-06
0.00103018
6.40108e-06
2.16694e-06
0.00101952
6.41605e-06
5.70246e-08
0.00101745
6.42912e-06
-2.05918e-06
0.00101745
6.42899e-06
-6.38299e-06
0.00101956
6.41206e-06
-2.16097e-05
0.00103032
6.39905e-06
-5.77129e-05
0.00105057
6.54153e-06
0.000956985
8.38007e-06
4.04238e-05
0.000927312
1.3251e-05
2.29341e-05
0.00107759
1.27805e-05
1.25136e-05
0.00105103
1.23494e-05
5.74706e-06
0.00103686
1.24564e-05
1.77553e-07
0.00103371
1.25079e-05
-5.4442e-06
0.00103375
1.24967e-05
-1.23074e-05
0.00103698
1.24392e-05
-2.2751e-05
0.00105118
1.23533e-05
-3.9879e-05
0.00107759
1.28123e-05
0.000927498
1.32654e-05
2.43798e-05
0.000908227
1.16005e-05
1.67333e-05
0.00109076
1.11951e-05
1.09287e-05
0.0010626
1.06114e-05
5.63702e-06
0.00104798
1.07115e-05
3.82467e-07
0.00104493
1.07946e-05
-4.97972e-06
0.00104495
1.07593e-05
-1.03586e-05
0.00104816
1.07015e-05
-1.61612e-05
0.00106282
1.0639e-05
-2.38213e-05
0.00109078
1.12236e-05
0.000908976
1.15822e-05
1.39094e-05
0.000896995
9.39663e-06
1.35926e-05
0.00109574
9.06318e-06
8.99703e-06
0.00107174
8.49162e-06
4.55866e-06
0.00105701
8.54263e-06
5.92665e-07
0.00105367
8.66648e-06
-3.52382e-06
0.00105368
8.60829e-06
-8.06906e-06
0.00105729
8.54093e-06
-1.26779e-05
0.00107208
8.54313e-06
-1.33018e-05
0.001096
9.09431e-06
0.000898403
9.35023e-06
7.56153e-06
0.000890659
7.81135e-06
1.19961e-05
0.00109573
7.94786e-06
8.18599e-06
0.00107927
7.5245e-06
4.13581e-06
0.00106496
7.59641e-06
8.26448e-07
0.00106105
7.78771e-06
-2.63679e-06
0.00106103
7.71445e-06
-6.83439e-06
0.00106539
7.5899e-06
-1.06921e-05
0.00107981
7.52588e-06
-6.68079e-06
0.00109633
7.93196e-06
0.000892912
7.90447e-06
4.29696e-06
0.000886589
6.38424e-06
1.02832e-05
0.00109396
7.04995e-06
7.42925e-06
0.00108506
6.56739e-06
4.00286e-06
0.00107151
6.68262e-06
1.06263e-06
0.00106712
6.9095e-06
-1.90199e-06
0.00106717
6.84933e-06
-5.52404e-06
0.00107214
6.66698e-06
-8.56972e-06
0.00108583
6.47658e-06
-3.05452e-06
0.00109507
6.94924e-06
0.000889956
6.62783e-06
2.89605e-06
0.000883116
5.24799e-06
8.76908e-06
0.00109238
6.1487e-06
6.64824e-06
0.00108977
5.41031e-06
3.92994e-06
0.00107682
5.57935e-06
1.35603e-06
0.00107212
5.78082e-06
-1.07082e-06
0.00107232
5.7712e-06
-4.06513e-06
0.00107773
5.57383e-06
-6.66378e-06
0.00109084
5.31268e-06
-1.29107e-06
0.00109395
6.05427e-06
0.000888124
5.42405e-06
2.30464e-06
0.000879759
4.39153e-06
8.00863e-06
0.00109109
5.43968e-06
6.16746e-06
0.00109419
4.45924e-06
4.05358e-06
0.00108149
4.71039e-06
1.78848e-06
0.00107658
4.84105e-06
-2.78977e-07
0.00107696
4.87057e-06
-2.75358e-06
0.00108278
4.71879e-06
-5.37486e-06
0.00109572
4.36424e-06
-2.38084e-07
0.00109317
5.33524e-06
0.00088695
4.52522e-06
2.03932e-06
0.000876363
3.76438e-06
7.65677e-06
0.00108985
5.02861e-06
6.00888e-06
0.00109826
3.76227e-06
4.43055e-06
0.00108571
4.1487e-06
2.39817e-06
0.00108074
4.19791e-06
4.95359e-07
0.00108128
4.24161e-06
-1.56287e-06
0.00108748
4.16272e-06
-4.1491e-06
0.00110045
3.64855e-06
6.3159e-07
0.00109289
4.87829e-06
0.000886203
3.9424e-06
2.08177e-06
0.00087276
3.27625e-06
7.666e-06
0.00108844
4.79464e-06
6.15261e-06
0.00110195
3.20953e-06
5.04933e-06
0.00108952
3.77462e-06
3.19153e-06
0.00108465
3.74555e-06
1.36667e-06
0.00108541
3.7852e-06
-3.58097e-07
0.00109191
3.792e-06
-2.83152e-06
0.00110502
3.0897e-06
1.35448e-06
0.00109312
4.59108e-06
0.000885805
3.53511e-06
2.34276e-06
0.000868671
3.02813e-06
7.86111e-06
0.00108683
4.6005e-06
6.59082e-06
0.00110524
2.68771e-06
5.93101e-06
0.00109298
3.48643e-06
4.24056e-06
0.00108832
3.36876e-06
2.38912e-06
0.00108934
3.39348e-06
9.77547e-07
0.00109619
3.52704e-06
-1.53059e-06
0.00110947
2.61749e-06
2.05254e-06
0.00109377
4.37439e-06
0.000885864
3.21634e-06
2.96552e-06
0.000863738
2.83781e-06
8.26421e-06
0.00108518
4.38804e-06
7.36102e-06
0.00110807
2.27478e-06
7.12856e-06
0.00109607
3.25739e-06
5.58284e-06
0.00109172
3.04189e-06
3.71173e-06
0.00109306
3.02885e-06
2.46983e-06
0.00110028
3.30552e-06
-1.5383e-07
0.00111385
2.18267e-06
2.81305e-06
0.00109482
4.21145e-06
0.00088652
2.97501e-06
3.97058e-06
0.000857757
2.54865e-06
9.08144e-06
0.00108336
4.296e-06
8.58053e-06
0.0011104
2.02307e-06
8.70996e-06
0.00109878
3.07808e-06
7.29233e-06
0.00109487
2.76123e-06
5.41427e-06
0.00109666
2.72959e-06
4.18712e-06
0.00110429
3.10737e-06
1.35138e-06
0.00111829
1.79658e-06
3.63692e-06
0.00109624
4.10714e-06
0.000887947
2.77031e-06
5.28133e-06
0.00085046
2.33281e-06
1.04429e-05
0.00108116
4.20459e-06
1.03292e-05
0.00111221
1.82446e-06
1.07839e-05
0.00110116
2.94664e-06
9.50813e-06
0.00109783
2.5635e-06
7.57021e-06
0.00110021
2.49305e-06
6.28745e-06
0.00110837
2.98526e-06
3.13942e-06
0.00112291
1.47493e-06
4.54531e-06
0.00109819
4.04868e-06
0.000890317
2.57396e-06
7.00916e-06
0.000841479
2.19588e-06
1.24456e-05
0.00107834
4.16017e-06
1.2766e-05
0.00111346
1.69431e-06
1.35262e-05
0.00110325
2.86423e-06
1.237e-05
0.00110065
2.43204e-06
1.03327e-05
0.0011038
2.32649e-06
8.86972e-06
0.00111265
2.92136e-06
5.33297e-06
0.00112787
1.23087e-06
5.63241e-06
0.00110089
4.00418e-06
0.000893867
2.43703e-06
9.2747e-06
0.000830271
2.14526e-06
1.51793e-05
0.00107477
4.13824e-06
1.60697e-05
0.00111404
1.65692e-06
1.71406e-05
0.001105
2.82899e-06
1.60879e-05
0.00110331
2.34562e-06
1.38829e-05
0.00110747
2.19169e-06
1.20683e-05
0.00111722
2.87517e-06
7.9824e-06
0.00113333
1.03912e-06
6.96338e-06
0.00110456
3.95795e-06
0.000898898
2.37265e-06
1.22461e-05
0.00081617
2.15501e-06
1.88779e-05
0.00107024
4.19973e-06
2.04512e-05
0.00111383
1.7469e-06
2.18598e-05
0.00110641
2.86331e-06
2.09059e-05
0.00110585
2.32271e-06
1.84602e-05
0.00111129
2.09836e-06
1.61089e-05
0.00112224
2.84788e-06
1.12345e-05
0.00113952
9.01742e-07
8.643e-06
0.00110947
3.92508e-06
0.000905814
2.36661e-06
1.60696e-05
0.000798358
2.29616e-06
2.37871e-05
0.00106444
4.36924e-06
2.62041e-05
0.00111271
1.98839e-06
2.79924e-05
0.00110745
3.001e-06
2.71111e-05
0.00110829
2.38891e-06
2.43535e-05
0.00111539
2.08964e-06
2.12992e-05
0.00112791
2.88828e-06
1.54168e-05
0.00114669
8.45506e-07
1.08136e-05
0.00111613
3.90463e-06
0.000915124
2.44309e-06
2.0876e-05
0.000775883
2.70673e-06
3.02618e-05
0.00105689
4.7024e-06
3.37168e-05
0.00111059
2.40889e-06
3.59053e-05
0.00110809
3.27779e-06
3.51274e-05
0.00111071
2.58654e-06
3.19582e-05
0.00111991
2.19427e-06
2.79724e-05
0.00113449
3.01781e-06
2.07374e-05
0.00115523
8.99812e-07
1.36076e-05
0.00112508
3.94454e-06
0.000927512
2.63935e-06
2.68113e-05
0.000747712
3.51965e-06
3.87204e-05
0.00104689
5.28686e-06
4.34352e-05
0.00110732
3.06878e-06
4.60844e-05
0.0011083
3.74805e-06
4.54617e-05
0.00111316
2.98804e-06
4.17841e-05
0.00112501
2.45509e-06
3.65876e-05
0.00114229
3.26447e-06
2.75478e-05
0.00116565
1.08889e-06
1.72797e-05
0.00113702
4.06293e-06
0.000943926
3.00159e-06
3.40135e-05
0.000712852
4.82504e-06
4.96565e-05
0.0010334
6.29567e-06
5.59155e-05
0.00110268
4.09945e-06
5.9156e-05
0.00110802
4.5077e-06
5.87387e-05
0.00111562
3.64389e-06
5.44979e-05
0.0011308
2.93022e-06
4.78106e-05
0.00115163
3.68239e-06
3.64377e-05
0.00117853
1.45846e-06
2.21287e-05
0.00115299
4.30239e-06
0.000965613
3.58159e-06
4.25075e-05
0.000670437
6.80185e-06
6.34709e-05
0.00101516
7.91476e-06
7.17659e-05
0.00109633
5.649e-06
7.58237e-05
0.00110715
5.69628e-06
7.57666e-05
0.00111807
4.66808e-06
7.0974e-05
0.00113739
3.7069e-06
6.25192e-05
0.00116288
4.34201e-06
4.81498e-05
0.00119465
2.0746e-06
2.86036e-05
0.00117436
4.75215e-06
0.000994325
4.45428e-06
5.20913e-05
0.000619906
9.68401e-06
8.03775e-05
0.000990643
1.0354e-05
9.16052e-05
0.00108772
7.86517e-06
9.68738e-05
0.0011055
7.47333e-06
9.75319e-05
0.0011204
6.22025e-06
9.23966e-05
0.00114479
4.93305e-06
8.19615e-05
0.00117641
5.36165e-06
6.3811e-05
0.00121499
3.05138e-06
3.74138e-05
0.00120299
5.50588e-06
0.00103262
5.72155e-06
6.22768e-05
0.000561242
1.36203e-05
0.000100316
0.000958139
1.38382e-05
0.000116021
0.00107583
1.09407e-05
0.000123229
0.00110263
1.00148e-05
0.000125249
0.00112226
8.46663e-06
0.000120342
0.00115277
6.75909e-06
0.00010797
0.00119247
6.85384e-06
8.51591e-05
0.0012407
4.48886e-06
4.96965e-05
0.00124145
6.69336e-06
0.00108437
7.50993e-06
7.21844e-05
0.000495116
1.83913e-05
0.000122538
0.00091581
1.8479e-05
0.000145239
0.00105903
1.50954e-05
0.000155821
0.00109772
1.35418e-05
0.000160379
0.00112297
1.1586e-05
0.000156898
0.00116068
9.3358e-06
0.000143241
0.00121092
8.94729e-06
0.000115086
0.00127294
6.49951e-06
6.75405e-05
0.00129332
8.43704e-06
0.00115575
9.96747e-06
8.0427e-05
0.00042281
2.31153e-05
0.000145466
0.000861625
2.40919e-05
0.000178816