/*--------------------------------*- C++ -*----------------------------------*\
| =========                 |                                                 |
| \\      /  F ield         | OpenFOAM: The Open Source CFD Toolbox           |
|  \\    /   O peration     | Version:  4.1                                   |
|   \\  /    A nd           | Web:      www.OpenFOAM.org                      |
|    \\/     M anipulation  |                                                 |
\*---------------------------------------------------------------------------*/
FoamFile
{
    version     2.0;
    format      ascii;
    class       volVectorField;
    location    "1000";
    object      U;
}
// * * * * * * * * * * * * * * * * * * * * * * * * * * * * * * * * * * * * * //

dimensions      [0 1 -1 0 0 0 0];

internalField   nonuniform List<vector> 
12000
(
(0.091985 -0.00967326 0.00966929)
(0.0965897 -0.00182149 0.0106257)
(0.0959952 -0.00135709 0.0110376)
(0.0956043 -0.00056044 0.0110609)
(0.0955069 -0.000150961 0.0110908)
(0.0955069 0.000134885 0.0110908)
(0.0956047 0.00054514 0.0110614)
(0.0959962 0.00134353 0.01104)
(0.0965912 0.0018087 0.0106281)
(0.0919882 0.00968705 0.00967353)
(0.0861871 -0.00376805 0.00375917)
(0.0951804 -0.00254376 0.00513067)
(0.0937552 -0.00197386 0.00559207)
(0.0926846 -0.000887275 0.00556573)
(0.092351 -0.000277459 0.00559893)
(0.0923496 0.000237282 0.00559911)
(0.0926885 0.000846494 0.00556488)
(0.0937637 0.0019366 0.00559015)
(0.0951844 0.00250615 0.00513628)
(0.0861897 0.00376916 0.00376919)
(0.082257 0.000824784 -0.000839456)
(0.0932231 -0.00256608 9.34181e-05)
(0.0919629 -0.00167402 0.000435013)
(0.0907416 -0.000807808 0.000434659)
(0.0902682 -0.000299512 0.000470687)
(0.0902591 0.000229109 0.000470652)
(0.0907516 0.000732671 0.00043395)
(0.0919867 0.00161172 0.000432644)
(0.0932325 0.002523 8.87742e-05)
(0.0823022 -0.000856911 -0.000851426)
(0.0795287 0.00274106 -0.00276263)
(0.0908332 -0.00252167 -0.00252643)
(0.0902353 -0.00120546 -0.0023599)
(0.0892625 -0.000687147 -0.00226903)
(0.0887747 -0.000301292 -0.00221636)
(0.0887339 0.000192239 -0.00222574)
(0.0892806 0.000573418 -0.00226809)
(0.0902964 0.00111452 -0.00234788)
(0.0908553 0.00246323 -0.00252159)
(0.0796292 -0.00278907 -0.00277324)
(0.0781069 0.00321949 -0.00325182)
(0.0891262 -0.00243906 -0.00351014)
(0.0892464 -0.000814081 -0.00357812)
(0.0885302 -0.0006466 -0.00338733)
(0.0880506 -0.000311609 -0.00331424)
(0.0879848 0.000154402 -0.0033364)
(0.0885633 0.000487905 -0.00338418)
(0.0893507 0.000685883 -0.00355302)
(0.0891534 0.00235381 -0.00350937)
(0.0782794 -0.00328783 -0.00326023)
(0.077321 0.00311834 -0.00316674)
(0.0880491 -0.00230736 -0.00374349)
(0.0888257 -0.000497729 -0.00400694)
(0.0883158 -0.000641827 -0.00369412)
(0.0878268 -0.00032325 -0.00361156)
(0.0877146 9.94933e-05 -0.00366599)
(0.0883657 0.000436194 -0.00369682)
(0.0889937 0.00031909 -0.00396278)
(0.0880857 0.00217951 -0.00373574)
(0.0775889 -0.0032069 -0.00316479)
(0.0766389 0.0028043 -0.00287441)
(0.0872558 -0.00216155 -0.00364518)
(0.0885773 -0.000252964 -0.00407487)
(0.0881297 -0.00064958 -0.00367884)
(0.0876364 -0.000330758 -0.00360143)
(0.0875515 1.84819e-05 -0.00366153)
(0.0882078 0.0003812 -0.00368716)
(0.0887658 1.06596e-05 -0.00403369)
(0.0873085 0.0019803 -0.00362167)
(0.0770414 -0.00292479 -0.00286461)
(0.075895 0.00243209 -0.0025294)
(0.0865679 -0.00202903 -0.00340693)
(0.0883425 -9.50332e-05 -0.00397762)
(0.0879004 -0.000681361 -0.00352645)
(0.087427 -0.000340155 -0.00346075)
(0.0873862 -8.68053e-05 -0.00351099)
(0.0880088 0.000320887 -0.00353197)
(0.0885815 -0.000229409 -0.00393801)
(0.08662 0.00178069 -0.00339222)
(0.0764814 -0.00260036 -0.00251837)
(0.0751106 0.0020667 -0.00219806)
(0.0859692 -0.00191126 -0.00311291)
(0.0881416 -1.64941e-05 -0.00379491)
(0.0876211 -0.000746835 -0.00333947)
(0.0871859 -0.000362629 -0.00329401)
(0.0872155 -0.000209412 -0.00331912)
(0.0877958 0.000258185 -0.00332998)
(0.0884207 -0.000422676 -0.00377508)
(0.0860405 0.00157727 -0.00311099)
(0.075945 -0.00229354 -0.002185)
(0.0743098 0.00172963 -0.00190433)
(0.0854491 -0.00181387 -0.00281265)
(0.0879144 -4.18395e-06 -0.00359922)
(0.0873428 -0.000841459 -0.00314849)
(0.0869782 -0.000407445 -0.00312179)
(0.0870555 -0.000352854 -0.00313409)
(0.0875863 0.000182068 -0.0031385)
(0.0882901 -0.000586858 -0.00359564)
(0.085572 0.00137007 -0.00282476)
(0.0754732 -0.00203122 -0.00188936)
(0.0734826 0.00142209 -0.00165361)
(0.0849839 -0.00174722 -0.0025281)
(0.0877 -5.30624e-05 -0.00338694)
(0.087058 -0.000962066 -0.00296453)
(0.0867822 -0.00047809 -0.00295614)
(0.0869447 -0.000524017 -0.00295074)
(0.0874108 7.87704e-05 -0.00295213)
(0.0882281 -0.000733997 -0.0034049)
(0.0851851 0.00115665 -0.00256119)
(0.0750831 -0.00181963 -0.00163518)
(0.0726062 0.00113506 -0.00144255)
(0.0845466 -0.00172296 -0.00227117)
(0.087453 -0.000160152 -0.00319711)
(0.0867959 -0.0011117 -0.00278543)
(0.0866207 -0.000587388 -0.00278804)
(0.0868133 -0.000724437 -0.00278772)
(0.0872913 -5.87553e-05 -0.00275643)
(0.0881715 -0.000886687 -0.00321592)
(0.0848791 0.00093678 -0.00232366)
(0.074774 -0.00165092 -0.0014152)
(0.0716537 0.000856789 -0.0012646)
(0.0841145 -0.00175132 -0.00204478)
(0.0871997 -0.000326808 -0.0030148)
(0.086523 -0.00130115 -0.00262174)
(0.0864465 -0.000752101 -0.00263426)
(0.0867177 -0.000964234 -0.0026242)
(0.0871678 -0.000240717 -0.00257893)
(0.0881631 -0.00105749 -0.00302303)
(0.0846738 0.00070541 -0.00210692)
(0.0745407 -0.00151672 -0.00122107)
(0.0705898 0.000576444 -0.00111256)
(0.0836729 -0.00183745 -0.00184963)
(0.0869221 -0.000563449 -0.00283354)
(0.0862449 -0.00155528 -0.00247723)
(0.0862861 -0.000989964 -0.00250237)
(0.0866346 -0.00126062 -0.00249384)
(0.0870866 -0.000480391 -0.00243217)
(0.0881816 -0.00125463 -0.00286103)
(0.0845738 0.000459549 -0.00191891)
(0.0744006 -0.00141446 -0.00104993)
(0.0693657 0.000282564 -0.000980706)
(0.0832073 -0.00199588 -0.00168078)
(0.0866057 -0.000884785 -0.00266502)
(0.0859631 -0.00188991 -0.00235351)
(0.086143 -0.00132039 -0.00237832)
(0.0865924 -0.00163292 -0.00237614)
(0.0870626 -0.000796208 -0.00229877)
(0.0882702 -0.00149824 -0.00271226)
(0.0845934 0.00019093 -0.00175739)
(0.0743768 -0.00134355 -0.000901474)
(0.067917 -3.80528e-05 -0.000864599)
(0.0826938 -0.00224468 -0.00153087)
(0.0862475 -0.00130942 -0.00250261)
(0.0856745 -0.00232311 -0.00223803)
(0.0860054 -0.00176255 -0.0022529)
(0.0865895 -0.00210252 -0.00225362)
(0.0871104 -0.00121434 -0.0021644)
(0.088439 -0.00181546 -0.00256647)
(0.084752 -0.000119735 -0.00161431)
(0.0744966 -0.00130694 -0.000772222)
(0.0661613 -0.000399612 -0.000758117)
(0.0820962 -0.00260637 -0.0013911)
(0.0858257 -0.00186724 -0.00234359)
(0.0853629 -0.00288864 -0.00213154)
(0.0858594 -0.00235079 -0.00213339)
(0.0866161 -0.00270014 -0.0021401)
(0.0872233 -0.0017612 -0.00204404)
(0.0887146 -0.00222964 -0.00242147)
(0.0850771 -0.000491969 -0.00148361)
(0.0747942 -0.00130952 -0.00065681)
(0.0639919 -0.000817598 -0.000653093)
(0.0813571 -0.00311017 -0.00125174)
(0.0853159 -0.00259959 -0.00218357)
(0.0850274 -0.00362803 -0.00202755)
(0.0857053 -0.00313007 -0.00201378)
(0.0866759 -0.00347013 -0.0020301)
(0.0874164 -0.00247279 -0.00193286)
(0.0891054 -0.00276793 -0.00228118)
(0.085602 -0.00094642 -0.00136117)
(0.075313 -0.00135738 -0.000548741)
(0.0612704 -0.00130658 -0.0005373)
(0.0803857 -0.00378951 -0.00110178)
(0.0846831 -0.00355672 -0.00201231)
(0.08464 -0.00459594 -0.00192036)
(0.0855099 -0.00415266 -0.00189879)
(0.0867801 -0.00445935 -0.00191654)
(0.0877267 -0.0033985 -0.00182103)
(0.0896626 -0.00347407 -0.00214088)
(0.0863678 -0.00151308 -0.00124272)
(0.0761086 -0.00146032 -0.00044097)
(0.057823 -0.00187646 -0.00039447)
(0.0790494 -0.00468094 -0.000925424)
(0.0838784 -0.0048013 -0.00181388)
(0.0841684 -0.00585873 -0.00179853)
(0.085286 -0.00548412 -0.00177338)
(0.0869062 -0.00573384 -0.00179735)
(0.0881471 -0.00460126 -0.00170692)
(0.0904038 -0.00440424 -0.00199518)
(0.0874298 -0.00223324 -0.00112127)
(0.0772533 -0.00163197 -0.000324846)
(0.0534398 -0.00252556 -0.000204054)
(0.0771461 -0.00581898 -0.000702177)
(0.0828238 -0.00640675 -0.00157499)
(0.0835664 -0.007492 -0.00165189)
(0.0849945 -0.00720319 -0.00162675)
(0.0870566 -0.00738066 -0.00165372)
(0.0887122 -0.00616424 -0.00157264)
(0.0913719 -0.00563478 -0.00182658)
(0.0888572 -0.0031652 -0.000989672)
(0.0788438 -0.00189369 -0.000191316)
(0.047887 -0.00322819 5.68514e-05)
(0.0743918 -0.00722181 -0.000405856)
(0.0814061 -0.00844871 -0.00127515)
(0.0827767 -0.00958966 -0.00146136)
(0.0845788 -0.00940641 -0.00144783)
(0.0871741 -0.00950962 -0.00147754)
(0.0893954 -0.00820503 -0.00140983)
(0.0925827 -0.00727567 -0.00162923)
(0.0907419 -0.00438832 -0.000836474)
(0.0810119 -0.00227607 -2.64189e-05)
(0.0409425 -0.00391304 0.000404727)
(0.0703924 -0.00886004 -8.82646e-06)
(0.0794274 -0.0109775 -0.000884614)
(0.0817034 -0.0122566 -0.00119993)
(0.0839672 -0.0122131 -0.00121797)
(0.0872064 -0.0122612 -0.00125114)
(0.0901998 -0.0108781 -0.00119786)
(0.0940988 -0.00948286 -0.00138562)
(0.0932011 -0.00602139 -0.000646607)
(0.0839391 -0.00283027 0.000186213)
(0.0324696 -0.00443141 0.00083278)
(0.0646614 -0.0106014 0.000504154)
(0.0765686 -0.0139601 -0.000366955)
(0.0801761 -0.0155882 -0.000825694)
(0.0830417 -0.0157654 -0.000907984)
(0.087039 -0.0158196 -0.000952756)
(0.0910464 -0.0144026 -0.000917574)
(0.0959495 -0.012493 -0.00107469)
(0.0963919 -0.00825366 -0.000396465)
(0.0878992 -0.00363451 0.000472252)
(0.0225484 -0.00451624 0.00126552)
(0.056672 -0.0121391 0.00110223)
(0.0722517 -0.0171924 0.000299053)
(0.077846 -0.0196152 -0.000288259)
(0.0815758 -0.0202246 -0.00047239)
(0.0864822 -0.0204253 -0.000545789)
(0.0918157 -0.0190855 -0.000536699)
(0.0981511 -0.016667 -0.00066933)
(0.100534 -0.011402 -5.2664e-05)
(0.0932929 -0.0048437 0.000865085)
(0.0116636 -0.00370685 0.00146308)
(0.0460517 -0.0128816 0.00163671)
(0.0656773 -0.0201629 0.00111357)
(0.0740861 -0.0242035 0.000484691)
(0.0791725 -0.0257561 0.00015393)
(0.0851986 -0.0263967 1.21656e-05)
(0.0922244 -0.0253684 -1.37325e-05)
(0.100616 -0.0225781 -0.000126501)
(0.105886 -0.0160063 0.000428943)
(0.100906 -0.00667127 0.00141928)
(0.000807553 -0.00117121 0.00133567)
(0.0325913 -0.0118831 0.00179831)
(0.0555451 -0.0219471 0.00194065)
(0.0676879 -0.0288322 0.00156843)
(0.0750686 -0.0323686 0.00110761)
(0.0826729 -0.0340833 0.000805499)
(0.0918517 -0.0338429 0.000701774)
(0.103179 -0.0311398 0.00059944)
(0.112868 -0.0231339 0.00111728)
(0.111819 -0.00984189 0.00220958)
(-0.00412093 0.00202023 0.00178525)
(0.0183851 -0.0081842 0.00218185)
(0.0412266 -0.0213049 0.00285411)
(0.0569922 -0.0325721 0.00292943)
(0.0677856 -0.0398206 0.00247615)
(0.0777563 -0.043896 0.00196892)
(0.0895711 -0.0453657 0.00169314)
(0.104902 -0.0437535 0.00157116)
(0.121232 -0.0348229 0.00207656)
(0.129809 -0.0149168 0.00334689)
(-0.00675571 0.000433434 0.000695781)
(0.000635602 -0.00435609 0.00246865)
(0.0207182 -0.0170153 0.00439104)
(0.0397607 -0.032523 0.0051097)
(0.0551801 -0.0457363 0.00467862)
(0.0691364 -0.0551116 0.00378311)
(0.0845847 -0.0608044 0.00314774)
(0.105427 -0.0626283 0.00286621)
(0.131127 -0.0555194 0.00343471)
(0.157449 -0.0279916 0.00505542)
(-0.0121475 -0.00388141 -0.00183062)
(-0.0142489 -0.0129656 -0.00179884)
(-0.00332488 -0.0214767 0.00144186)
(0.0136042 -0.0326548 0.00518977)
(0.0315446 -0.0477611 0.00685309)
(0.0500243 -0.063803 0.00655042)
(0.0695366 -0.0789427 0.00548618)
(0.0983611 -0.0886532 0.00475674)
(0.13134 -0.0996789 0.00494849)
(0.217645 -0.046013 0.00738641)
(0.0965866 -0.0106292 0.00181498)
(0.101409 -0.00143152 0.00142622)
(0.10094 -0.00123521 0.00150632)
(0.10066 -0.000463316 0.00147981)
(0.100615 -0.000114959 0.00149258)
(0.100615 0.000102691 0.00149236)
(0.100661 0.00045271 0.00147972)
(0.100944 0.00122724 0.00150562)
(0.101415 0.00142681 0.00142832)
(0.0965886 0.0107254 0.00182475)
(0.0951699 -0.00513798 0.0025295)
(0.10841 -0.00244051 0.0024272)
(0.106231 -0.0020209 0.00249322)
(0.105016 -0.000789062 0.00243856)
(0.104776 -0.000246732 0.00247035)
(0.104779 0.000209955 0.00246794)
(0.105022 0.000759274 0.00243606)
(0.106247 0.00198767 0.00248891)
(0.108436 0.00239433 0.00242225)
(0.0951456 0.00517688 0.0025354)
(0.0931996 -0.000104908 0.00254356)
(0.111628 -0.00285598 0.00283173)
(0.10919 -0.00172042 0.00286062)
(0.107572 -0.000668713 0.00279784)
(0.107212 -0.000284357 0.00283879)
(0.10723 0.000209147 0.0028236)
(0.107586 0.000606114 0.00279473)
(0.109197 0.0016517 0.00286757)
(0.111627 0.00280909 0.00283431)
(0.093233 6.74014e-05 0.00254219)
(0.0907881 0.00250791 0.00248759)
(0.11186 -0.0031934 0.00315235)
(0.10989 -0.00121412 0.0031066)
(0.108309 -0.000534849 0.00305868)
(0.107915 -0.000303676 0.00310629)
(0.107986 0.000185266 0.00309437)
(0.108336 0.000441945 0.00305772)
(0.109871 0.00111502 0.00311437)
(0.111867 0.00311653 0.00315026)
(0.0908809 -0.00258318 0.00248318)
(0.0890492 0.00347971 0.00238619)
(0.110936 -0.00338646 0.0033241)
(0.109733 -0.000799194 0.00320573)
(0.108306 -0.000524739 0.00321685)
(0.107882 -0.000331312 0.00326074)
(0.107998 0.000163262 0.00325447)
(0.108347 0.000395511 0.00321606)
(0.109693 0.000663054 0.0032093)
(0.110996 0.00327621 0.00332189)
(0.0892149 -0.0036029 0.00238251)
(0.0879281 0.00369524 0.0022257)
(0.110009 -0.00344309 0.00335124)
(0.109545 -0.000472389 0.00315771)
(0.108191 -0.000574723 0.0031803)
(0.107718 -0.000348746 0.00320455)
(0.107898 0.000120404 0.00324749)
(0.108257 0.000399676 0.00318231)
(0.109484 0.000295416 0.0031261)
(0.11014 0.00329836 0.0033632)
(0.0881909 -0.00383823 0.00222764)
(0.0870737 0.00357379 0.00204487)
(0.109147 -0.00344285 0.00332576)
(0.109421 -0.000229944 0.00306304)
(0.108187 -0.000652002 0.00309111)
(0.107669 -0.000346475 0.00308328)
(0.107844 4.71076e-05 0.00316529)
(0.108278 0.000408093 0.00309371)
(0.109411 -1.26322e-05 0.00301603)
(0.10936 0.00325327 0.00334051)
(0.0874694 -0.00372908 0.00205575)
(0.0863034 0.00330741 0.00187372)
(0.108313 -0.00340599 0.00326331)
(0.109283 -7.18065e-05 0.00297735)
(0.108184 -0.000748916 0.00302585)
(0.107643 -0.000335874 0.00297918)
(0.107797 -5.50685e-05 0.00306803)
(0.108315 0.000417595 0.00303573)
(0.109328 -0.00026555 0.00291517)
(0.108679 0.0031707 0.00328802)
(0.0868529 -0.00350812 0.00188929)
(0.0855933 0.00298056 0.00171051)
(0.107513 -0.00333014 0.00315604)
(0.109097 7.44224e-07 0.00285491)
(0.108184 -0.000869339 0.00297629)
(0.107633 -0.00032885 0.00289786)
(0.10775 -0.000180657 0.00296047)
(0.10834 0.000424359 0.00297637)
(0.10925 -0.000460701 0.00280259)
(0.108037 0.00305603 0.00320452)
(0.0863677 -0.00324772 0.00172456)
(0.0849252 0.0026409 0.00155557)
(0.106773 -0.00324167 0.00301785)
(0.108955 1.33308e-05 0.00273069)
(0.108173 -0.00100386 0.00291903)
(0.107611 -0.000337683 0.00280984)
(0.107719 -0.000331309 0.00286117)
(0.108381 0.00041681 0.00291911)
(0.109214 -0.000618496 0.00270346)
(0.107457 0.00289341 0.00308614)
(0.0860186 -0.0029923 0.00156671)
(0.0842617 0.00230547 0.00140881)
(0.106103 -0.00314832 0.00284924)
(0.108809 -2.9149e-05 0.00260434)
(0.10817 -0.00115452 0.00286167)
(0.107603 -0.000370557 0.00271787)
(0.107683 -0.000502817 0.00272841)
(0.108426 0.000378086 0.00286891)
(0.109184 -0.000756166 0.00258019)
(0.106966 0.00268984 0.00294514)
(0.0857848 -0.00276271 0.00142148)
(0.0835602 0.00197911 0.00126877)
(0.105474 -0.00307492 0.00267922)
(0.108675 -0.000121063 0.00249174)
(0.10814 -0.00132291 0.00278606)
(0.107585 -0.000441447 0.00260636)
(0.1077 -0.000701663 0.00260282)
(0.10846 0.000303281 0.00277737)
(0.109208 -0.000895741 0.00245699)
(0.106545 0.0024702 0.00279999)
(0.0856663 -0.00256603 0.00129488)
(0.0827877 0.00166155 0.00113798)
(0.104885 -0.00302721 0.00250929)
(0.1085 -0.000269965 0.00239076)
(0.108105 -0.00152666 0.00269921)
(0.10759 -0.000556778 0.00249836)
(0.107719 -0.000938314 0.00248744)
(0.108546 0.000186267 0.0026807)
(0.109252 -0.00104665 0.00233331)
(0.106196 0.00222374 0.00264385)
(0.0856648 -0.0023984 0.0011884)
(0.0819093 0.00135242 0.0010229)
(0.10431 -0.00302411 0.00234849)
(0.108287 -0.000478458 0.00228203)
(0.108055 -0.00177311 0.00261628)
(0.107591 -0.000733375 0.00241016)
(0.107765 -0.00122164 0.00238255)
(0.108652 1.29859e-05 0.00260386)
(0.109351 -0.00123091 0.00222303)
(0.105923 0.00195953 0.00248783)
(0.0857931 -0.00226638 0.00109566)
(0.0808851 0.00104073 0.000925414)
(0.103728 -0.0030799 0.00219335)
(0.108034 -0.000758069 0.00217976)
(0.107979 -0.00207722 0.0025366)
(0.107577 -0.000989533 0.00232416)
(0.107812 -0.00156218 0.00228871)
(0.108776 -0.000235169 0.0025276)
(0.109487 -0.00145254 0.00212962)
(0.105751 0.00166261 0.00233713)
(0.0860519 -0.00216565 0.00101637)
(0.0796629 0.00071117 0.000842405)
(0.10311 -0.00321001 0.00205041)
(0.10772 -0.00112917 0.0020868)
(0.107868 -0.00246033 0.00245575)
(0.107556 -0.00134878 0.00223714)
(0.107869 -0.00197775 0.00218996)
(0.108924 -0.000574844 0.00243729)
(0.109679 -0.00172763 0.00204316)
(0.105708 0.0013221 0.00219567)
(0.0864471 -0.00209228 0.000953969)
(0.0781812 0.000347456 0.000776107)
(0.102423 -0.003435 0.00192413)
(0.107338 -0.00161339 0.0020001)
(0.107724 -0.00295067 0.00238512)
(0.107539 -0.00183691 0.00216311)
(0.107958 -0.00249716 0.0020981)
(0.109132 -0.00102505 0.00234528)
(0.109942 -0.00207948 0.00195919)
(0.105825 0.000923749 0.00206433)
(0.0870122 -0.00204853 0.000909656)
(0.076362 -6.6878e-05 0.000732869)
(0.101626 -0.00377801 0.00182062)
(0.106874 -0.00224403 0.00193481)
(0.107527 -0.00358115 0.00232645)
(0.10752 -0.00248851 0.00209914)
(0.108083 -0.00315347 0.00203042)
(0.109413 -0.0016201 0.00227613)
(0.110318 -0.00253692 0.00189406)
(0.106136 0.000450373 0.00194838)
(0.0877932 -0.00203989 0.000884956)
(0.0741071 -0.000545886 0.000726986)
(0.100673 -0.00426952 0.00175093)
(0.106312 -0.00306556 0.00190044)
(0.107277 -0.00439417 0.002282)
(0.107515 -0.00334813 0.00207031)
(0.108249 -0.00398747 0.00197993)
(0.109772 -0.00240338 0.00221804)
(0.110819 -0.00313102 0.00184809)
(0.106694 -0.000125611 0.00185478)
(0.08885 -0.00207558 0.000886528)
(0.0713047 -0.00110288 0.000777791)
(0.0994943 -0.00494237 0.0017294)
(0.105638 -0.00412883 0.00189837)
(0.106965 -0.00544051 0.0022611)
(0.107501 -0.00447501 0.0020795)
(0.108477 -0.00505806 0.00196027)
(0.110252 -0.00342721 0.00218392)
(0.111506 -0.00391124 0.00183073)
(0.107568 -0.000835207 0.00178873)
(0.0902656 -0.00216701 0.000920827)
(0.0678174 -0.0017449 0.000911754)
(0.0979934 -0.00583333 0.00177995)
(0.104839 -0.00549442 0.00194251)
(0.106587 -0.00678905 0.0022815)
(0.107486 -0.00593527 0.00211883)
(0.108772 -0.006434 0.00197417)
(0.110869 -0.00476801 0.0021748)
(0.112429 -0.00494187 0.00184276)
(0.108849 -0.00172523 0.00176462)
(0.0921524 -0.00233337 0.000996316)
(0.0634998 -0.00246871 0.00115927)
(0.0960302 -0.00697295 0.00193323)
(0.103886 -0.00723225 0.00205733)
(0.106124 -0.00852267 0.00236385)
(0.107467 -0.00781557 0.00221331)
(0.109161 -0.00821583 0.00203859)
(0.111683 -0.00652141 0.00221201)
(0.113694 -0.00631805 0.00190283)
(0.110651 -0.00285838 0.00179814)
(0.0946706 -0.00260069 0.00112952)
(0.0581926 -0.0032471 0.00154554)
(0.093404 -0.00837089 0.00222555)
(0.102724 -0.009412 0.0022797)
(0.105554 -0.0107384 0.00252975)
(0.107423 -0.0102252 0.00239352)
(0.109646 -0.0105326 0.00218301)
(0.112721 -0.00882738 0.00231214)
(0.115379 -0.00817876 0.00203314)
(0.113139 -0.00434372 0.00191043)
(0.0980404 -0.0030172 0.00134429)
(0.0517397 -0.00400678 0.00207589)
(0.0898372 -0.0100016 0.00269356)
(0.101231 -0.0120701 0.00264226)
(0.104836 -0.0135408 0.00280418)
(0.107303 -0.0132933 0.00268015)
(0.110202 -0.0135564 0.00243503)
(0.114026 -0.0118788 0.00250269)
(0.117605 -0.0107302 0.00225093)
(0.116535 -0.00634378 0.0021326)
(0.102599 -0.00364761 0.00167597)
(0.0440352 -0.00460562 0.00268684)
(0.0849132 -0.0117301 0.00332585)
(0.099172 -0.015172 0.00319646)
(0.103892 -0.017034 0.00324028)
(0.107041 -0.0171757 0.00310957)
(0.110771 -0.0175107 0.00283146)
(0.115603 -0.0159614 0.0028291)
(0.120503 -0.0143023 0.0025985)
(0.121158 -0.00914135 0.00250478)
(0.108828 -0.00463472 0.00217634)
(0.0350508 -0.00476816 0.00318815)
(0.0781621 -0.0132707 0.00404116)
(0.0960863 -0.0185339 0.00398005)
(0.10251 -0.0212924 0.00393536)
(0.106494 -0.0220767 0.0037517)
(0.111211 -0.0226988 0.00342274)
(0.117377 -0.0214835 0.00333608)
(0.124162 -0.0194236 0.00312423)
(0.127439 -0.0132253 0.00309004)
(0.11765 -0.0061644 0.00291624)
(0.0250744 -0.00413622 0.00324343)
(0.0689646 -0.0140944 0.00456985)
(0.0911769 -0.0217053 0.00497966)
(0.100247 -0.0262337 0.00500493)
(0.105443 -0.0282128 0.00472538)
(0.11131 -0.0295226 0.00428625)
(0.119197 -0.0290351 0.00408464)
(0.128658 -0.0269627 0.00388831)
(0.136024 -0.0195703 0.00397207)
(0.1303 -0.00891853 0.00401616)
(0.0155531 -0.00231567 0.00314933)
(0.05747 -0.0135224 0.0049751)
(0.0835004 -0.0240524 0.00618317)
(0.0962407 -0.0315805 0.00653048)
(0.103354 -0.0357565 0.0061407)
(0.11056 -0.0384657 0.0054806)
(0.120467 -0.0394258 0.00508938)
(0.133576 -0.0382858 0.0048913)
(0.147159 -0.0301239 0.0052022)
(0.150914 -0.0133404 0.00559436)
(0.00901406 -0.000680123 0.00311296)
(0.0441569 -0.0112606 0.00562415)
(0.0722578 -0.0243563 0.00769342)
(0.0893811 -0.0361117 0.00855441)
(0.099663 -0.044289 0.00807041)
(0.108712 -0.0499462 0.00705003)
(0.120809 -0.0536511 0.00634417)
(0.1387 -0.0553704 0.00609231)
(0.161348 -0.0488422 0.0068571)
(0.182197 -0.0253287 0.00791014)
(0.00573105 -0.00238536 0.000581062)
(0.0313542 -0.0110733 0.00469633)
(0.0579955 -0.0243994 0.00797539)
(0.0780567 -0.0387701 0.00972397)
(0.0919619 -0.0516541 0.00956206)
(0.103741 -0.0626291 0.00829065)
(0.117135 -0.0726628 0.00713272)
(0.141115 -0.0801269 0.00670099)
(0.169926 -0.0893311 0.00798763)
(0.248034 -0.0414917 0.0108427)
(0.095993 -0.011041 0.00134995)
(0.100941 -0.00151151 0.00122946)
(0.100656 -0.00117567 0.00117038)
(0.100411 -0.000458168 0.00118171)
(0.10037 -0.000113164 0.00118696)
(0.100369 0.000102177 0.00118705)
(0.100413 0.0004491 0.00118116)
(0.100659 0.00116988 0.00116976)
(0.100943 0.00151188 0.00123017)
(0.0959937 0.0111647 0.00135346)
(0.0937483 -0.00559828 0.0019566)
(0.106232 -0.00250646 0.00200373)
(0.103726 -0.00191563 0.00189974)
(0.102539 -0.000780211 0.00193888)
(0.102297 -0.000237852 0.00194752)
(0.102299 0.000205258 0.00194719)
(0.102547 0.000754217 0.00193558)
(0.103745 0.00188513 0.00189826)
(0.106269 0.00245465 0.00200385)
(0.0937177 0.00563181 0.00195786)
(0.0919497 -0.000444982 0.00164457)
(0.109181 -0.00289128 0.00168594)
(0.10605 -0.00161868 0.00158749)
(0.104418 -0.000647565 0.00162825)
(0.104069 -0.000270794 0.00163847)
(0.104073 0.000199336 0.00163547)
(0.104432 0.000584399 0.00162607)
(0.106065 0.00155323 0.0015894)
(0.109172 0.00284754 0.0016881)
(0.0919943 0.000405464 0.00164226)
(0.0902222 0.00233574 0.00116105)
(0.109844 -0.00314635 0.00116222)
(0.107091 -0.00110965 0.00105934)
(0.105503 -0.000500544 0.00108943)
(0.105156 -0.000291278 0.00110384)
(0.105157 0.000178613 0.00109664)
(0.105525 0.000401011 0.00108874)
(0.107118 0.00101445 0.00106388)
(0.10986 0.00308403 0.00116452)
(0.0903219 -0.00240164 0.00116047)
(0.0892224 0.0035312 0.000738712)
(0.109652 -0.00326062 0.000728718)
(0.10762 -0.000682097 0.000611607)
(0.10617 -0.000498273 0.000642194)
(0.105819 -0.000327298 0.000664014)
(0.105818 0.000166521 0.000652358)
(0.106204 0.000356008 0.000642087)
(0.107663 0.000548159 0.000615456)
(0.109691 0.00316488 0.000728438)
(0.0894027 -0.00363298 0.0007499)
(0.0887979 0.00392206 0.000384488)
(0.109421 -0.00320462 0.000389343)
(0.108174 -0.000324375 0.000229907)
(0.106805 -0.000565583 0.000270368)
(0.106405 -0.000346254 0.00029373)
(0.106404 0.000129864 0.000276897)
(0.106858 0.000368034 0.000270506)
(0.108239 0.000140148 0.00023066)
(0.109504 0.00307103 0.000381747)
(0.0890695 -0.00405771 0.000405992)
(0.0884884 0.00396736 0.000108383)
(0.1093 -0.00310077 0.000115543)
(0.108731 -3.22491e-05 -9.66419e-05)
(0.107414 -0.000651878 -4.64212e-05)
(0.106958 -0.000337018 -2.95589e-05)
(0.10697 5.11622e-05 -4.41322e-05)
(0.10749 0.000385605 -4.56636e-05)
(0.108821 -0.000217977 -9.86213e-05)
(0.10944 0.00294709 0.000101955)
(0.0888875 -0.00414241 0.000130324)
(0.088153 0.00385254 -8.80935e-05)
(0.10919 -0.00302955 -9.21517e-05)
(0.109218 0.000182883 -0.00035459)
(0.107937 -0.000756795 -0.000291411)
(0.10745 -0.000314986 -0.000286776)
(0.107479 -6.2883e-05 -0.000297487)
(0.108046 0.000408186 -0.000291291)
(0.109345 -0.00051713 -0.000358637)
(0.109366 0.00284369 -0.000113288)
(0.0887537 -0.00406864 -6.6571e-05)
(0.0878167 0.00365773 -0.000223258)
(0.109047 -0.00295617 -0.000228167)
(0.109639 0.000323811 -0.00054728)
(0.108381 -0.000878396 -0.000472232)
(0.107882 -0.000295407 -0.000482612)
(0.107928 -0.000205047 -0.000487816)
(0.108532 0.00042648 -0.000470985)
(0.109822 -0.000764631 -0.000556293)
(0.109291 0.00269894 -0.000253453)
(0.0886606 -0.00391186 -0.000204719)
(0.0874478 0.00344333 -0.000313227)
(0.108925 -0.00291029 -0.000313268)
(0.110021 0.000404041 -0.000698189)
(0.108774 -0.00101418 -0.000603895)
(0.108279 -0.000288242 -0.000629112)
(0.108344 -0.000371282 -0.000632071)
(0.108979 0.000428499 -0.000602708)
(0.110279 -0.000984456 -0.000709448)
(0.109291 0.00253779 -0.000347598)
(0.0885848 -0.00374015 -0.000298692)
(0.0870922 0.0031962 -0.000361537)
(0.108755 -0.00285266 -0.00036072)
(0.110367 0.000425939 -0.00081786)
(0.109134 -0.00116437 -0.000702414)
(0.108654 -0.000304527 -0.000742155)
(0.108741 -0.000560901 -0.000740588)
(0.10941 0.000403844 -0.000696477)
(0.110726 -0.00118742 -0.00082612)
(0.109332 0.00236466 -0.000407318)
(0.0885707 -0.00355901 -0.000359023)
(0.0866401 0.00293809 -0.000389344)
(0.108604 -0.00281154 -0.000388521)
(0.110676 0.000396224 -0.000907683)
(0.109461 -0.00133449 -0.000770706)
(0.109008 -0.000353873 -0.000825319)
(0.109125 -0.000778834 -0.00082725)
(0.109827 0.000343488 -0.000758138)
(0.111168 -0.00138395 -0.000920664)
(0.109424 0.00218297 -0.000443386)
(0.0886042 -0.00340198 -0.000393433)
(0.0861064 0.00265945 -0.000409376)
(0.108429 -0.0028053 -0.000399694)
(0.110936 0.000308092 -0.000965934)
(0.109751 -0.00153454 -0.000817462)
(0.109336 -0.000447295 -0.000888996)
(0.10949 -0.00102915 -0.000891158)
(0.110231 0.000239609 -0.000804679)
(0.111607 -0.00157975 -0.000995723)
(0.109545 0.00198633 -0.000460227)
(0.0887079 -0.00326457 -0.000409183)
(0.0854412 0.00238565 -0.000414006)
(0.10824 -0.0028497 -0.000401731)
(0.111144 0.000155069 -0.00100438)
(0.110005 -0.00177408 -0.000848213)
(0.109641 -0.000599029 -0.000933265)
(0.109846 -0.0013203 -0.000940037)
(0.110633 8.04298e-05 -0.000834407)
(0.112057 -0.00179279 -0.00105484)
(0.10971 0.00176281 -0.000463748)
(0.0888925 -0.00313801 -0.000415115)
(0.0846418 0.00209245 -0.000402919)
(0.107988 -0.0029468 -0.000391081)
(0.111297 -7.73749e-05 -0.00102729)
(0.110228 -0.00206969 -0.000865061)
(0.109928 -0.000827192 -0.000959588)
(0.110201 -0.00166482 -0.000971362)
(0.111048 -0.000146807 -0.000848552)
(0.112532 -0.00203554 -0.00109531)
(0.109936 0.00150182 -0.000460565)
(0.0891854 -0.00302798 -0.000409945)
(0.0836456 0.00176743 -0.000379713)
(0.107673 -0.00310095 -0.000369117)
(0.111391 -0.000405602 -0.0010296)
(0.11042 -0.00244039 -0.000868444)
(0.110202 -0.00115467 -0.000971201)
(0.110562 -0.00208099 -0.000989191)
(0.111488 -0.000457738 -0.000851114)
(0.113051 -0.00232237 -0.00112193)
(0.110253 0.00120542 -0.000453911)
(0.0896027 -0.00294159 -0.000392195)
(0.0823994 0.00139636 -0.000345703)
(0.107273 -0.00333306 -0.00033296)
(0.111412 -0.000852016 -0.00100829)
(0.110579 -0.00290761 -0.000858945)
(0.110461 -0.00160663 -0.000969287)
(0.110935 -0.00259192 -0.00099614)
(0.111964 -0.000876532 -0.000846063)
(0.113628 -0.00267312 -0.00113604)
(0.110674 0.000858525 -0.000440751)
(0.0901932 -0.0028786 -0.000363678)
(0.0808259 0.000967714 -0.000294722)
(0.106765 -0.00366414 -0.000279953)
(0.111349 -0.00144306 -0.000961979)
(0.110702 -0.00350121 -0.00083268)
(0.110709 -0.00221446 -0.000951385)
(0.111329 -0.00322605 -0.000990531)
(0.112495 -0.00143346 -0.000831363)
(0.11429 -0.00311608 -0.00113722)
(0.111238 0.000430814 -0.000424249)
(0.0909968 -0.00284672 -0.000324494)
(0.0788363 0.000475999 -0.000213585)
(0.106114 -0.00412299 -0.000203763)
(0.11119 -0.00221579 -0.000886748)
(0.110787 -0.00425911 -0.000786012)
(0.110953 -0.00301811 -0.000917186)
(0.111758 -0.0040248 -0.000968641)
(0.113102 -0.00216555 -0.000803672)
(0.115068 -0.00368317 -0.00112177)
(0.112012 -8.75594e-05 -0.000403584)
(0.0920613 -0.00285537 -0.00027031)
(0.0763347 -8.80207e-05 -8.55871e-05)
(0.105257 -0.00473935 -9.03918e-05)
(0.110924 -0.00321534 -0.000775364)
(0.11083 -0.00522747 -0.000712898)
(0.111195 -0.00406852 -0.000855434)
(0.112236 -0.00503825 -0.000926136)
(0.113816 -0.00312397 -0.000761041)
(0.116007 -0.00441404 -0.00108744)
(0.113038 -0.00073183 -0.000370303)
(0.0934838 -0.00291275 -0.000197136)
(0.07321 -0.000727765 0.00010838)
(0.104116 -0.00554982 8.02208e-05)
(0.110537 -0.00449644 -0.000613815)
(0.110828 -0.00646537 -0.000603038)
(0.11144 -0.00542823 -0.000758085)
(0.112777 -0.00633144 -0.000853757)
(0.114665 -0.0043773 -0.000694285)
(0.117158 -0.00536969 -0.00102676)
(0.114412 -0.00155324 -0.000322089)
(0.0953648 -0.00303364 -0.000100704)
(0.0693778 -0.00144578 0.000394277)
(0.102569 -0.00657267 0.000333976)
(0.109998 -0.00611478 -0.000381031)
(0.110774 -0.00803981 -0.000438966)
(0.111687 -0.00717215 -0.000612637)
(0.113395 -0.00798998 -0.000742309)
(0.115688 -0.00601433 -0.000597152)
(0.118593 -0.00663539 -0.000933829)
(0.116252 -0.00261036 -0.000249917)
(0.0978502 -0.00324639 2.89614e-05)
(0.0647511 -0.00221998 0.000802679)
(0.100481 -0.0078064 0.000700372)
(0.10927 -0.0081164 -5.26968e-05)
(0.110654 -0.010025 -0.000197662)
(0.11193 -0.00938679 -0.000398962)
(0.114095 -0.0101248 -0.000572958)
(0.11692 -0.0081593 -0.000453621)
(0.120398 -0.00833498 -0.000794066)
(0.118718 -0.00399752 -0.00014168)
(0.101154 -0.00359034 0.000206874)
(0.0592977 -0.00299771 0.00135693)
(0.0976822 -0.00922306 0.0012163)
(0.108279 -0.0105313 0.000405603)
(0.11044 -0.0125036 0.000149937)
(0.112147 -0.0121744 -9.14129e-05)
(0.114871 -0.0128787 -0.000322081)