/*--------------------------------*- C++ -*----------------------------------*\
| =========                 |                                                 |
| \\      /  F ield         | OpenFOAM: The Open Source CFD Toolbox           |
|  \\    /   O peration     | Version:  4.1                                   |
|   \\  /    A nd           | Web:      www.OpenFOAM.org                      |
|    \\/     M anipulation  |                                                 |
\*---------------------------------------------------------------------------*/
FoamFile
{
    version     2.0;
    format      ascii;
    class       surfaceScalarField;
    location    "90";
    object      phi;
}
// * * * * * * * * * * * * * * * * * * * * * * * * * * * * * * * * * * * * * //

dimensions      [0 3 -1 0 0 0 0];

internalField   nonuniform List<scalar> 
33700
(
5.74591e-05
0.000890886
5.74016e-05
1.58514e-05
0.000958806
6.00622e-05
9.58062e-06
0.000948767
6.26394e-05
3.55841e-06
0.00094143
6.262e-05
8.6495e-08
0.000939268
6.28327e-05
-3.39187e-06
0.000939275
6.28313e-05
-9.42883e-06
0.000941453
6.26176e-05
-1.57104e-05
0.000948795
6.26388e-05
-5.74255e-05
0.000958837
6.00742e-05
0.000890961
5.74431e-05
3.16322e-05
0.000842351
3.15023e-05
2.24542e-05
0.000942831
3.81305e-05
1.42269e-05
0.000929171
4.05561e-05
5.8266e-06
0.000917571
4.01945e-05
2.2194e-07
0.000913476
4.05374e-05
-5.39396e-06
0.000913524
4.0543e-05
-1.38077e-05
0.000917654
4.01788e-05
-2.2034e-05
0.00092927
4.05188e-05
-3.13894e-05
0.000942945
3.81393e-05
0.000842701
3.15476e-05
8.87453e-06
0.00080908
8.64558e-06
2.1043e-05
0.000922642
1.53761e-05
1.22308e-05
0.000912511
1.66919e-05
5.50979e-06
0.000901073
1.63484e-05
3.83715e-07
0.000896099
1.67656e-05
-4.75596e-06
0.000896156
1.67304e-05
-1.15143e-05
0.000901231
1.63245e-05
-2.04151e-05
0.000912701
1.66421e-05
-8.43372e-06
0.000922894
1.53424e-05
0.000809974
8.61375e-06
-8.68e-07
0.000788451
-1.21915e-06
1.85786e-05
0.000902922
3.54695e-06
9.33228e-06
0.000899564
4.1503e-06
4.87993e-06
0.000890282
4.31365e-06
6.04575e-07
0.000884903
4.74015e-06
-3.72399e-06
0.000885088
4.7266e-06
-8.25811e-06
0.000890535
4.25695e-06
-1.76602e-05
0.000899935
4.10005e-06
1.4981e-06
0.000903518
3.5685e-06
0.000790048
-1.23915e-06
-3.7199e-06
0.00077757
-4.2323e-06
1.62606e-05
0.00088891
-1.13945e-06
7.16064e-06
0.000892563
-1.34785e-06
4.66568e-06
0.000884958
-5.2625e-07
8.9796e-07
0.000878851
-1.8995e-07
-3.01115e-06
0.000879598
-1.79e-08
-5.66445e-06
0.000885334
-6.0875e-07
-1.49745e-05
0.000893145
-1.43555e-06
4.5968e-06
0.000890058
-1.05125e-06
0.000780101
-4.22205e-06
-3.8308e-06
0.000770285
-4.5564e-06
1.40936e-05
0.000879289
-2.2026e-06
5.62908e-06
0.000888835
-3.6999e-06
4.72125e-06
0.000882054
-2.2098e-06
1.22496e-06
0.000875272
-1.8952e-06
-2.42773e-06
0.000876566
-1.72565e-06
-3.56259e-06
0.000882602
-2.28585e-06
-1.23721e-05
0.000889821
-3.7606e-06
5.0161e-06
0.000880958
-2.16385e-06
0.000774094
-4.4884e-06
-2.9173e-06
0.000762995
-3.91535e-06
1.22781e-05
0.000871369
-1.7254e-06
4.64805e-06
0.000885728
-4.5419e-06
4.90441e-06
0.00087935
-2.4186e-06
1.62368e-06
0.000872401
-2.12745e-06
-1.79246e-06
0.000873861
-2.1491e-06
-1.83622e-06
0.000880176
-2.44255e-06
-9.99921e-06
0.000887384
-4.53365e-06
4.51825e-06
0.000873474
-1.72365e-06
0.00076856
-3.78905e-06
-1.647e-06
0.000755036
-3.00105e-06
1.0955e-05
0.000864145
-6.9815e-07
4.20879e-06
0.000882584
-4.55185e-06
5.23077e-06
0.000876258
-1.9307e-06
2.16554e-06
0.000869625
-1.7786e-06
-1.0627e-06
0.000871111
-1.91525e-06
-4.48225e-07
0.000877514
-1.89e-06
-7.91795e-06
0.000885077
-4.5435e-06
3.8204e-06
0.000866683
-7.1175e-07
0.000762962
-2.83045e-06
-3.25e-07
0.000746699
-2.13485e-06
1.01218e-05
0.00085748
3.5055e-07
4.29462e-06
0.000879464
-4.27305e-06
5.74909e-06
0.000873023
-1.18225e-06
2.88692e-06
0.000866967
-1.2824e-06
-2.006e-07
0.000868494
-1.471e-06
7.1961e-07
0.000874831
-1.1114e-06
-6.05417e-06
0.000883105
-4.2416e-06
3.2496e-06
0.000860576
3.618e-07
0.000757738
-1.9352e-06
9.5215e-07
0.000738053
-1.45225e-06
9.72512e-06
0.000851215
1.14415e-06
4.83207e-06
0.000876496
-3.9069e-06
6.49732e-06
0.00086984
-4.599e-07
3.83945e-06
0.000864489
-8.449e-07
8.56635e-07
0.00086617
-1.04745e-06
1.82448e-06
0.000872296
-3.832e-07
-4.28053e-06
0.000881541
-3.90615e-06
2.95635e-06
0.000855139
1.24005e-06
0.000753166
-1.20685e-06
2.2241e-06
0.000728891
-9.5885e-07
9.68544e-06
0.000845354
1.80875e-06
5.74294e-06
0.000873538
-3.55235e-06
7.543e-06
0.000866601
8.83e-08
5.10265e-06
0.00086219
-5.0035e-07
2.20407e-06
0.000864138
-7.295e-07
3.04174e-06
0.000870005
2.4375e-07
-2.47852e-06
0.000880348
-3.6021e-06
2.9467e-06
0.00085043
1.95605e-06
0.000749304
-6.219e-07
3.5938e-06
0.000718983
-6.112e-07
1.00792e-05
0.000839843
2.3135e-06
7.07272e-06
0.000870368
-3.2513e-06
8.96502e-06
0.000863274
5.145e-07
6.74844e-06
0.000860031
-2.3915e-07
3.91948e-06
0.000862372
-5.045e-07
4.50142e-06
0.000868018
7.6235e-07
-5.69365e-07
0.000879466
-3.35845e-06
3.19353e-06
0.000846614
2.49445e-06
0.000746151
-1.3115e-07
5.15209e-06
0.000708076
-4.0965e-07
1.10694e-05
0.000834364
2.5571e-06
8.95349e-06
0.00086699
-2.92105e-06
1.08724e-05
0.000859904
8.6015e-07
8.88085e-06
0.000857983
-4.025e-08
6.10092e-06
0.000860894
-3.365e-07
6.30243e-06
0.000866361
1.1587e-06
1.49242e-06
0.000878993
-3.12545e-06
3.69736e-06
0.000843844
2.7952e-06
0.000743803
2.8725e-07
7.01968e-06
0.000695814
-3.0685e-07
1.27428e-05
0.000828792
2.70235e-06
1.15095e-05
0.000863307
-2.60455e-06
1.34431e-05
0.000856506
1.1261e-06
1.16667e-05
0.000856028
1.1625e-07
8.8878e-06
0.000859747
-2.1375e-07
8.57646e-06
0.000865158
1.47115e-06
3.8054e-06
0.000879084
-2.90385e-06
4.4746e-06
0.000842275
2.9557e-06
0.000742504
6.5869e-07
9.34641e-06
0.000681663
-2.6217e-07
1.5233e-05
0.000822906
2.7922e-06
1.49093e-05
0.000859115
-2.32135e-06
1.68896e-05
0.000853061
1.3247e-06
1.53057e-05
0.000854147
2.4475e-07
1.24577e-05
0.00085898
-1.2595e-07
1.1505e-05
0.000864541
1.7109e-06
6.52391e-06
0.000879871
-2.69915e-06
5.57136e-06
0.000842065
3.05975e-06
0.000742545
1.00164e-06
1.22931e-05
0.000664878
-2.5568e-07
1.87427e-05
0.000816372
2.85025e-06
1.9384e-05
0.000854289
-2.005e-06
2.14562e-05
0.000849511
1.475e-06
2.00437e-05
0.000852315
3.7605e-07
1.7048e-05
0.000858633
-5.4e-08
1.53025e-05
0.000864656
1.8986e-06
9.81208e-06
0.000881563
-2.46865e-06
7.06093e-06
0.000843402
3.1363e-06
0.00074426
1.32966e-06
1.60546e-05
0.000644485
-2.2651e-07
2.35358e-05
0.000808763
2.9215e-06
2.52387e-05
0.000848633
-1.62865e-06
2.74762e-05
0.000845733
1.61305e-06
2.62146e-05
0.000850472
5.4465e-07
2.29655e-05
0.000858742
3.635e-08
2.02403e-05
0.000865682
2.06685e-06
1.38909e-05
0.000884393
-2.2054e-06
9.05726e-06
0.000846601
3.2183e-06
0.000748047
1.6793e-06
2.08475e-05
0.000619226
-9.991e-08
2.99524e-05
0.000799396
3.07995e-06
3.28806e-05
0.00084186
-1.1458e-06
3.53793e-05
0.000841544
1.7934e-06
3.42411e-05
0.000848523
7.931e-07
3.06077e-05
0.00085934
1.883e-07
2.66867e-05
0.000867783
2.24215e-06
1.90498e-05
0.00088867
-1.8877e-06
1.17044e-05
0.000852096
3.32965e-06
0.000754383
2.10772e-06
2.69191e-05
0.000587526
2.5146e-07
3.84447e-05
0.000787175
3.40195e-06
4.28406e-05
0.000833613
-4.718e-07
4.56912e-05
0.000836687
2.08295e-06
4.46474e-05
0.00084631
1.17695e-06
4.04867e-05
0.000860397
4.575e-07
3.51176e-05
0.000871109
2.47035e-06
2.56683e-05
0.000894743
-1.4808e-06
1.52075e-05
0.000860451
3.51115e-06
0.000763891
2.67061e-06
3.4489e-05
0.000547472
1.00127e-06
4.95254e-05
0.000770353
3.99725e-06
5.57809e-05
0.000823332
4.855e-07
5.90746e-05
0.000830773
2.56695e-06
5.81045e-05
0.000843578
1.77405e-06
5.32637e-05
0.000861783
9.135e-07
4.61364e-05
0.000875806
2.83065e-06
3.42384e-05
0.000902937
-9.0535e-07
1.98488e-05
0.00087235
3.836e-06
0.000777409
3.44901e-06
4.3706e-05
0.000496837
2.39661e-06
6.37329e-05
0.000746453
5.12349e-06
7.24783e-05
0.000810153
1.86705e-06
7.63414e-05
0.000823277
3.37755e-06
7.54553e-05
0.000839928
2.69355e-06
6.98019e-05
0.000863209
1.67105e-06
6.05494e-05
0.00088196
3.4334e-06
4.54282e-05
0.00091359
-5.405e-08
2.60301e-05
0.000888631
4.40195e-06
0.000796075
4.55829e-06
5.44764e-05
0.000433329
4.754e-06
8.14879e-05
0.000712043
7.11136e-06
9.37719e-05
0.000792554
3.8647e-06
9.84635e-05
0.000813377
4.6918e-06
9.77511e-05
0.000834677
4.08055e-06
9.1248e-05
0.000864126
2.8886e-06
7.94969e-05
0.000889456
4.41515e-06
6.01888e-05
0.000927133
1.2145e-06
3.43108e-05
0.000910346
5.35311e-06
0.000821437
6.16827e-06
6.61974e-05
0.000355208
8.32759e-06
0.000102836
0.000662545
1.02709e-05
0.000120434
0.000767891
6.8206e-06
0.000126564
0.000799725
6.7834e-06
0.000126303
0.000826718
6.1566e-06
0.000119122
0.00086353
4.79865e-06
0.000104581
0.000897811
5.99755e-06
7.99335e-05
0.000943943
3.0944e-06
4.55681e-05
0.000938837
6.90353e-06
0.000855749
8.50952e-06
7.73083e-05
0.000262387
1.31334e-05
0.000126823
0.000592642
1.48635e-05
0.000152738
0.000731428
1.10771e-05
0.000161841
0.000779697
1.0028e-05
0.000162756
0.000814219
9.23312e-06
0.000155456
0.000859723
7.70725e-06
0.000138105
0.000905934
8.4977e-06
0.00010682
0.000964176
5.8813e-06
6.11568e-05
0.000975909
9.3747e-06
0.000902319
1.19274e-05
8.46744e-05
0.00015785
1.84681e-05
0.000150617
0.000497691
2.07337e-05
0.000189676
0.000675788
1.69978e-05
0.000205259
0.000748272
1.49867e-05
0.000209131
0.000793984
1.37817e-05
0.000202976
0.00084986
1.20471e-05
0.000183426
0.000911517
1.2352e-05
0.000144298
0.000987227
9.99404e-06
8.34797e-05
0.00102378
1.323e-05
0.000967033
1.69342e-05
8.25503e-05
5.06239e-05
2.19619e-05
0.000168249
0.000375023
2.67006e-05
0.000227682
0.000589902
2.48158e-05
0.000256892
0.000695709
2.24809e-05
0.000267911
0.000759986
2.05329e-05
0.000265518
0.000829473
1.83789e-05
0.000245635
0.00091071
1.81262e-05
0.000197966
0.00101149
1.60217e-05
0.000116385
0.00108555
1.91254e-05
0.00105903
2.42391e-05
6.15308e-05
-2.20316e-05
2.23694e-05
0.000169986
0.000234681
3.01729e-05
0.000259169
0.000463992
3.38292e-05
0.000313907
0.000607362
3.34974e-05
0.000340816
0.000700621
3.07621e-05
0.000347814
0.00078988
2.7578e-05
0.000332298
0.000895204
2.6522e-05
0.000277866
0.00103071
2.46842e-05
0.000168984
0.00116124
2.80052e-05
0.00120286
3.49901e-05
2.74072e-05
-5.85179e-05
2.5088e-05
0.000144387
7.03777e-05
3.55284e-05
0.000272087
0.000282741
4.50961e-05
0.000369461
0.000461428
4.83995e-05
0.000428323
0.000596224
4.55436e-05
0.000456316
0.00071774
4.06907e-05
0.000454929
0.000854743
3.82197e-05
0.000401319
0.00103794
3.65664e-05
0.000254343
0.00124999
4.07737e-05
0.00142933
5.06516e-05
2.55977e-05
-0.00010688
1.96036e-05
0.000110288
-9.18414e-05
3.8838e-05
0.000248552
6.00917e-05
5.97724e-05
0.000394725
0.00023897
7.01447e-05
0.000511536
0.000406552
6.7617e-05
0.000589787
0.000569924
5.96941e-05
0.000628432
0.000745591
5.4331e-05
0.000602348
0.00099649
5.20677e-05
0.00042634
0.00129231
5.88834e-05
0.00187153
7.3017e-05
9.11906e-05
-7.37023e-06
-0.000183919
0.000184235
1.10057e-05
-0.000214378
0.000282219
4.22269e-05
-0.000114232
0.000408313
7.24289e-05
1.7254e-05
0.000561626
8.53051e-05
0.000152863
0.000719818
8.23968e-05
0.00032551
0.000847932
7.4417e-05
0.000529054
0.000956963
6.97965e-05
0.00086071
0.000744084
7.71818e-05
0.00121326
0.000103572
0.00236213
6.01098e-05
0.000958726
1.57763e-05
1.30705e-05
0.00104925
1.30114e-05
8.44665e-06
0.0010358
1.32532e-05
2.88079e-06
0.00102837
1.31858e-05
6.393e-08
0.00102694
1.32802e-05
-2.75984e-06
0.00102696
1.32788e-05
-8.34558e-06
0.0010284
1.3181e-05
-1.29877e-05
0.00103587
1.3246e-05
-6.04049e-05
0.00104938
1.30218e-05
0.000958705
1.58223e-05
3.82373e-05
0.000942635
2.22776e-05
2.22374e-05
0.00109797
2.20876e-05
1.40529e-05
0.00107641
2.18397e-05
5.24976e-06
0.00106234
2.16928e-05
1.92575e-07
0.00105925
2.19078e-05
-4.87141e-06
0.00105925
2.19103e-05
-1.367e-05
0.0010624
2.16777e-05
-2.17848e-05
0.00107651
2.18089e-05
-3.81188e-05
0.00109802
2.20803e-05
0.000942867
2.22926e-05
1.55808e-05
0.000922261
2.07336e-05
2.31467e-05
0.00110959
2.28598e-05
1.20341e-05
0.00109333
2.23213e-05
4.89654e-06
0.00107779
2.2086e-05
3.81125e-07
0.00107385
2.23676e-05
-4.14897e-06
0.00107392
2.23243e-05
-1.13165e-05
0.00107793
2.20599e-05
-2.25056e-05
0.00109352
2.22856e-05
-1.52056e-05
0.0011096
2.28441e-05
0.000923102
2.07165e-05
3.8683e-06
0.00090225
1.81102e-05
2.14508e-05
0.00110353
2.10119e-05
8.99845e-06
0.00109495
2.07112e-05
4.35343e-06
0.00108099
2.06704e-05
5.8281e-07
0.00107706
2.08858e-05
-3.22569e-06
0.0010771
2.09091e-05
-7.96371e-06
0.0010813
2.06288e-05
-2.0622e-05
0.0010953
2.06862e-05
-3.30965e-06
0.0011034
2.10516e-05
0.000903986
1.80698e-05
-6.6805e-07
0.000887816
1.55973e-05
1.9859e-05
0.001095
1.92337e-05
6.92844e-06
0.00109291
1.87687e-05
4.41804e-06
0.00108107
1.90206e-05
8.0456e-07
0.00107758
1.91775e-05
-2.83585e-06
0.0010771
1.93807e-05
-5.49849e-06
0.00108161
1.89735e-05
-1.87294e-05
0.00109358
1.8699e-05
1.5225e-06
0.00109448
1.93053e-05
0.000890898
1.55546e-05
-1.54125e-06
0.000877603
1.31561e-05
1.87003e-05
0.0010871
1.78334e-05
5.68151e-06
0.00109145
1.65663e-05
4.79311e-06
0.00108135
1.71968e-05
1.07875e-06
0.00107816
1.74749e-05
-2.63112e-06
0.00107718
1.75324e-05
-3.70884e-06
0.00108222
1.71598e-05
-1.70535e-05
0.00109242
1.6567e-05
2.81425e-06
0.0010865
1.78045e-05
0.000882308
1.3171e-05
-8.1195e-07
0.000868873
1.09736e-05
1.7678e-05
0.00107988
1.64972e-05
4.90809e-06
0.00109058
1.44711e-05
5.20459e-06
0.00108176
1.54625e-05
1.46075e-06
0.00107858
1.58035e-05
-2.32436e-06
0.00107756
1.56094e-05
-2.29046e-06
0.00108302
1.54566e-05
-1.53461e-05
0.00109181
1.44878e-05
2.59675e-06
0.00107971
1.63451e-05
0.000875507
1.10624e-05
5.342e-07
0.000860557
9.17852e-06
1.68317e-05
0.00107325
1.52422e-05
4.63254e-06
0.00108973
1.27106e-05
5.68223e-06
0.00108199
1.39991e-05
1.96254e-06
0.0010787
1.42309e-05
-1.86934e-06
0.00107787
1.39403e-05
-1.15488e-06
0.0010837
1.40456e-05
-1.37225e-05
0.00109139
1.27085e-05
1.8371e-06
0.00107397
1.50351e-05
0.000869609
9.32277e-06
1.98515e-06
0.000852434
7.73398e-06
1.61694e-05
0.00106749
1.40522e-05
4.81434e-06
0.00108892
1.12021e-05
6.28097e-06
0.00108204
1.28454e-05
2.61572e-06
0.00107868
1.28202e-05
-1.26768e-06
0.00107813
1.25215e-05
-2.32715e-07
0.00108435
1.29026e-05
-1.21287e-05
0.00109114
1.11953e-05
1.09465e-06
0.0010694
1.38637e-05
0.000864649
7.919e-06
3.31305e-06
0.000844229
6.5391e-06
1.57049e-05
0.00106274
1.29002e-05
5.36032e-06
0.00108813
9.90925e-06
7.0301e-06
0.001082
1.18426e-05
3.46243e-06
0.0010787
1.15375e-05
-4.5939e-07
0.00107845
1.12666e-05
6.52365e-07
0.00108513
1.19036e-05
-1.05073e-05
0.00109125
9.84068e-06
6.2105e-07
0.00106606
1.27977e-05
0.000860672
6.76708e-06
4.66365e-06
0.000835814
5.46574e-06
1.56935e-05
0.00105841
1.19829e-05
6.30261e-06
0.00108734
8.77513e-06
7.99383e-06
0.00108201
1.08972e-05
4.55349e-06
0.00107877
1.03831e-05
6.07465e-07
0.0010789
1.01154e-05
1.59581e-06
0.00108606
1.10385e-05
-8.89441e-06
0.00109174
8.63958e-06
3.9145e-07
0.00106359
1.1904e-05
0.000857767
5.77298e-06
6.0699e-06
0.000826976
4.50555e-06
1.60884e-05
0.00105397
1.1198e-05
7.67364e-06
0.0010865
7.76181e-06
9.25349e-06
0.001082
1.00702e-05
5.96405e-06
0.00107887
9.3529e-06
2.00532e-06
0.00107946
9.07114e-06
2.69737e-06
0.00108714
1.02709e-05
-7.19943e-06
0.00109262
7.53993e-06
4.524e-07
0.0010617
1.11188e-05
0.000856051
4.92266e-06
7.4758e-06
0.000817174
3.70701e-06
1.6799e-05
0.00104954
1.03762e-05
9.46717e-06
0.0010854
6.9244e-06
1.09023e-05
0.00108186
9.37084e-06
7.79652e-06
0.00107896
8.44782e-06
3.82571e-06
0.00108012
8.14992e-06
4.11851e-06
0.00108845
9.5756e-06
-5.29935e-06
0.0010939
6.5765e-06
8.6555e-07
0.00106046
1.03637e-05
0.000855638
4.2373e-06
9.1075e-06
0.000806033
3.04814e-06
1.80577e-05
0.00104492
9.64431e-06
1.1794e-05
0.00108393
6.18735e-06
1.30782e-05
0.00108152
8.76464e-06
1.01738e-05
0.00107904
7.65934e-06
6.17064e-06
0.0010809
7.34449e-06
5.97359e-06
0.00109002
8.97287e-06
-3.14015e-06
0.00109562
5.7324e-06
1.5869e-06
0.0010599
9.67584e-06
0.000856739
3.68294e-06
1.11126e-05
0.000793035
2.50081e-06
1.99754e-05
0.00103988
8.99523e-06
1.48054e-05
0.00108211
5.5467e-06
1.59562e-05
0.00108095
8.24341e-06
1.3252e-05
0.00107911
6.98995e-06
9.17849e-06
0.00108183
6.6437e-06
8.39219e-06
0.00109194
8.44592e-06
-6.412e-07
0.00109795
5.00025e-06
2.58385e-06
0.00106029
9.0671e-06
0.000859394
3.24236e-06
1.36085e-05
0.000777546
2.06096e-06
2.27402e-05
0.00103416
8.4407e-06
1.8697e-05
0.00107981
5.0626e-06
1.97571e-05
0.00108006
7.81144e-06
1.72426e-05
0.00107915
6.44405e-06
1.30423e-05
0.00108296
6.03835e-06
1.15545e-05
0.00109429
7.9898e-06
2.36945e-06
0.00110105
4.3816e-06
3.8996e-06
0.0010621
8.50077e-06
0.000863656
2.94533e-06
1.67588e-05
0.000758873
1.75771e-06
2.65886e-05
0.00102729
8.02054e-06
2.37377e-05
0.00107689
4.75365e-06
2.476e-05
0.00107882
7.47675e-06
2.24111e-05
0.00107919
6.0328e-06
1.80108e-05
0.00108438
5.54455e-06
1.57013e-05
0.00109721
7.61528e-06
6.06382e-06
0.00110513
3.8765e-06
5.62242e-06
0.0010657
7.99481e-06
0.000869921
2.798e-06
2.07621e-05
0.000736193
1.63999e-06
3.18278e-05
0.00101869
7.79956e-06
3.02651e-05
0.00107322
4.65745e-06
3.13112e-05
0.0010772
7.26771e-06
2.90949e-05
0.00107924
5.7849e-06
2.43996e-05
0.00108616
5.19225e-06
2.11144e-05
0.00110087
7.32554e-06
1.06683e-05
0.00111045
3.5166e-06
7.91028e-06
0.0010715
7.58135e-06
0.000878785
2.8074e-06
2.58103e-05
0.000708495
1.83144e-06
3.87706e-05
0.00100766
7.8262e-06
3.8707e-05
0.00106859
4.8489e-06
3.98451e-05
0.00107515
7.24021e-06
3.7728e-05
0.00107935
5.74318e-06
3.26216e-05
0.00108844
5.0129e-06
2.81604e-05
0.00110555
7.14672e-06
1.64771e-05
0.00111736
3.33165e-06
1.0936e-05
0.00108006
7.30365e-06
0.000891049
2.99635e-06
3.20608e-05
0.000674524
2.51164e-06
4.77914e-05
0.000993361
8.20357e-06
4.95842e-05
0.00106277
5.39996e-06
5.09062e-05
0.00107264
7.47131e-06
4.88672e-05
0.00107953
5.98347e-06
4.32296e-05
0.00109138
5.0625e-06
3.7339e-05
0.00111155
7.15146e-06
2.38947e-05
0.00112641
3.3718e-06
1.49354e-05
0.0010921
7.20471e-06
0.000907769
3.42571e-06
3.97394e-05
0.000633041
3.90737e-06
5.94273e-05
0.000974419
9.18533e-06
6.35641e-05
0.00105538
6.47709e-06
6.51959e-05
0.00106961
8.10098e-06
6.32299e-05
0.00107977
6.62371e-06
5.69604e-05
0.00109515
5.44695e-06
4.93541e-05
0.0011192
7.43498e-06
3.34899e-05
0.00113831
3.7165e-06
2.02266e-05
0.00110866
7.36513e-06
0.00093036
4.20378e-06
4.898e-05
0.000582878
6.33032e-06
7.42055e-05
0.000948895
1.10956e-05
8.14048e-05
0.00104572
8.28242e-06
8.35638e-05
0.00106592
9.30737e-06
8.17346e-05
0.00108001
7.81242e-06
7.47891e-05
0.00109986
6.32463e-06
6.51614e-05
0.00112893
8.1177e-06
4.60726e-05
0.00115392
4.50285e-06
2.72981e-05
0.00113118
7.91244e-06
0.000960773
5.48861e-06
5.96362e-05
0.000522692
1.01153e-05
9.23696e-05
0.000914452
1.4207e-05
0.000103911
0.00103258
1.11425e-05
0.000107043
0.00106115
1.13755e-05
0.000105562
0.00108002
9.77752e-06
9.80412e-05
0.00110549
7.91758e-06
8.61321e-05
0.00114114
9.39488e-06
6.28584e-05
0.00117426
5.9177e-06
3.68886e-05
0.00116159
9.05047e-06
0.00100184
7.50524e-06
7.11253e-05
0.000451175
1.54741e-05
0.000113832
0.000867928
1.88462e-05
0.000131738
0.00101382
1.53469e-05
0.000136837
0.00105443
1.46671e-05
0.000136248
0.00107927
1.28503e-05
0.000128562
0.00111174
1.05423e-05
0.000114286
0.00115607
1.15608e-05
8.57065e-05
0.00120055
8.22304e-06
5.017e-05
0.00120263
1.10837e-05
0.00105771
1.05835e-05
8.20967e-05
0.000367723
2.19954e-05
0.000137741
0.000805114
2.51212e-05
0.00016519
0.000985684
2.13216e-05
0.00017433
0.00104385
1.97161e-05
0.000175796
0.00107662
1.75004e-05
0.000168942
0.00111767
1.46351e-05
0.000152696
0.00117345
1.50223e-05
0.000117684
0.00123398
1.17972e-05
6.92406e-05
0.00125803
1.44374e-05
0.00113546
1.52085e-05
8.96735e-05
0.000273585
2.80644e-05
0.000161622
0.000720821
3.25288e-05
0.000203573
0.000941777
2.94876e-05
0.000220902
0.0010256
2.72426e-05
0.000226871
0.00107005
2.43759e-05
0.000222879
0.00112152
2.07449e-05
0.000206133
0.00119222
2.02705e-05
0.000163902
0.00127543
1.71317e-05
9.74918e-05
0.0013332
1.96587e-05
0.00124582
2.20412e-05
8.91559e-05
0.000178594
3.09723e-05
0.000180557
0.000613286
3.92004e-05
0.0002442
0.000873663
3.98646e-05
0.000277259
0.000992591
3.82273e-05
0.000292675
0.00105524
3.44071e-05
0.000295449
0.00111955
2.95329e-05
0.000281993
0.00120862
2.78552e-05
0.000233657
0.00132318
2.4769e-05
0.000143203
0.00143267
2.74761e-05
0.00141593
3.19686e-05
7.55594e-05
0.000102395
3.17472e-05
0.000187975
0.000485078
4.52745e-05
0.000282417
0.000772401
5.23367e-05
0.000342815
0.000934176
5.3054e-05
0.00037676
0.00102565
4.82074e-05
0.00039358
0.00110751
4.12686e-05
0.000391603
0.00121783
3.77578e-05
0.000343826
0.00137424
3.46473e-05
0.000218482
0.00156043
3.82643e-05
0.00167949
4.59039e-05
5.76255e-05
5.66036e-05
2.90266e-05
0.000177735
0.000350722
5.07201e-05
0.000305747
0.000637981
6.58303e-05
0.000408509
0.000836663
7.10306e-05
0.00047873
0.000964691
6.56519e-05
0.000524668
0.00107202
5.58024e-05
0.00055038
0.00120142
4.94684e-05
0.000524359
0.00141252
4.59207e-05
0.000372605
0.00167526
5.21624e-05
0.00217215
6.41189e-05
7.14133e-05
1.02805e-06
9.76982e-06
0.000180707
3.95035e-05
0.000225136
0.00032113
6.54471e-05
0.000490938
0.000459416
7.6867e-05
0.000710107
0.000580621
7.43813e-05
0.000869325
0.000686711
6.37531e-05
0.00100451
0.000773993
5.48323e-05
0.0011446
0.000855267
5.06897e-05
0.00141314
0.000659286
6.06966e-05
0.00171875
8.41972e-05
0.0027697
6.26841e-05
0.000948695
9.49688e-06
1.33085e-05
0.00103581
8.38094e-06
8.14375e-06
0.00102186
8.08232e-06
2.85892e-06
0.00101472
8.16444e-06
5.5435e-08
0.0010133
8.19882e-06
-2.75648e-06
0.00101331
8.19784e-06
-8.06326e-06
0.00101475
8.16231e-06
-1.32509e-05
0.0010219
8.08213e-06
-6.3104e-05
0.00103597
8.38497e-06
0.000948653
9.51234e-06
4.06546e-05
0.000928987
1.4019e-05
2.19759e-05
0.00107642
1.38653e-05
1.35592e-05
0.00104906
1.33865e-05
5.17833e-06
0.00103488
1.35045e-05
1.6704e-07
0.00103189
1.35472e-05
-4.84938e-06
0.00103192
1.35398e-05
-1.32244e-05
0.00103495
1.34982e-05
-2.15094e-05
0.00104913
1.33748e-05
-4.04886e-05
0.00107653
1.38742e-05
0.000929222
1.40252e-05
1.68825e-05
0.000912135
1.1871e-05
2.25873e-05
0.00109332
1.16931e-05
1.14753e-05
0.00106644
1.11522e-05
4.7156e-06
0.00104998
1.12302e-05
3.66245e-07
0.00104641
1.12781e-05
-3.98754e-06
0.00104644
1.12694e-05
-1.07701e-05
0.00105012
1.12157e-05
-2.20024e-05
0.00106658
1.11308e-05
-1.65375e-05
0.00109332
1.16867e-05
0.000913062
1.18617e-05
4.4516e-06
0.000898902
8.81153e-06
2.11351e-05
0.0010949
8.48125e-06
8.2188e-06
0.00107452
7.71e-06
4.06408e-06
0.00105882
7.75587e-06
5.6646e-07
0.00105517
7.81828e-06
-2.94499e-06
0.00105524
7.82107e-06
-7.17258e-06
0.00105908
7.74409e-06
-2.02771e-05
0.00107481
7.69096e-06
-3.87735e-06
0.00109503
8.48419e-06
0.000900595
8.79415e-06
-9.198e-07
0.000891483
6.45058e-06
1.93752e-05
0.00109286
6.17062e-06
5.96374e-06
0.00107965
5.21595e-06
4.14078e-06
0.0010651
5.34455e-06
7.9682e-07
0.00106111
5.44172e-06
-2.56774e-06
0.0010613
5.4837e-06
-4.50759e-06
0.00106553
5.33751e-06
-1.81526e-05
0.00108013
5.19406e-06
1.90005e-06
0.00109319
6.19812e-06
0.000894207
6.44812e-06
-3.0902e-06
0.000887191
4.60229e-06
1.74202e-05
0.0010914
4.61708e-06
4.45432e-06
0.00108478
3.43331e-06
4.53038e-06
0.001071
3.64548e-06
1.10533e-06
0.00106646
3.75243e-06
-2.38981e-06
0.0010668
3.83102e-06
-2.48756e-06
0.00107166
3.62387e-06
-1.57423e-05
0.00108553
3.39315e-06
4.4703e-06
0.00109203
4.63458e-06
0.000891293
4.65324e-06
-3.68715e-06
0.000883376
3.18012e-06
1.56318e-05
0.00109051
3.48809e-06
3.37936e-06
0.00108975
2.02215e-06
4.90836e-06
0.00107652
2.33317e-06
1.51193e-06
0.00107159
2.4095e-06
-2.04649e-06
0.00107202
2.48037e-06
-7.70775e-07
0.00107749
2.29922e-06
-1.34039e-05
0.00109089
1.98922e-06
5.4551e-06
0.00109152
3.48018e-06
0.000889314
3.26124e-06
-3.4334e-06
0.000879272
2.18848e-06
1.42328e-05
0.00108967
2.74069e-06
2.80095e-06
0.00109416
1.00422e-06
5.32723e-06
0.00108133
1.4227e-06
2.02256e-06
0.00107625
1.43238e-06
-1.53924e-06
0.00107676
1.48899e-06
6.5091e-07
0.00108269
1.38454e-06
-1.1335e-05
0.00109579
9.71885e-07
5.62825e-06
0.00109124
2.72143e-06
0.000887569
2.28619e-06
-2.7733e-06
0.000874956
1.55066e-06
1.32523e-05
0.00108881
2.3195e-06
2.70543e-06
0.00109809
3.37995e-07
5.87266e-06
0.0010855
8.951e-07
2.66889e-06
0.00108044
8.2145e-07
-8.9552e-07
0.00108108
8.62295e-07
1.84889e-06
0.00108736
8.55855e-07
-9.41657e-06
0.00110038
2.9324e-07
5.56495e-06
0.00109139
2.27837e-06
0.000886085
1.70948e-06
-1.9286e-06
0.000870461
1.15456e-06
1.26002e-05
0.00108792
2.1061e-06
3.02982e-06
0.00110171
-8.9015e-08
6.57381e-06
0.00108925
6.35235e-07
3.49384e-06
0.00108432
4.61005e-07
-6.562e-08
0.00108515
4.88615e-07
2.96829e-06
0.00109176
5.86945e-07
-7.5815e-06
0.00110487
-1.6268e-07
5.48775e-06
0.00109203
2.02517e-06
0.000885125
1.39058e-06
-9.967e-07
0.000865499
8.6741e-07
1.22812e-05
0.00108699
2.04689e-06
3.74499e-06
0.00110501
-3.51395e-07
7.4649e-06
0.00109267
5.2185e-07
4.55069e-06
0.00108798
2.4892e-07
1.01876e-06
0.00108907
2.64095e-07
4.11917e-06
0.00109602
4.70665e-07
-5.72105e-06
0.00110933
-4.65235e-07
5.5365e-06
0.00109315
1.93134e-06
0.000884745
1.18873e-06
7.635e-08
0.000859744
6.47795e-07
1.23402e-05
0.00108593
2.11506e-06
4.85926e-06
0.00110792
-5.09e-07
8.6291e-06
0.00109575
4.98955e-07
5.92043e-06
0.00109143
1.3845e-07
2.42793e-06
0.00109288
1.3323e-07
5.41915e-06
0.00110019
4.5925e-07
-3.7901e-06
0.00111381
-6.70485e-07
5.7492e-06
0.00109478
1.94226e-06
0.000884951
1.04069e-06
1.3594e-06
0.000852873
5.2419e-07
1.28404e-05
0.00108464
2.19696e-06
6.40713e-06
0.00111038
-6.02125e-07
1.01778e-05
0.00109851
5.4105e-07
7.69819e-06
0.00109467
9.974e-08
4.23737e-06
0.00109658
6.862e-08
6.97033e-06
0.00110434
5.10635e-07
-1.7464e-06
0.00111838
-8.2332e-07
6.12245e-06
0.00109692
1.98491e-06
0.000885903
9.37375e-07
2.9575e-06
0.000844587
4.6684e-07
1.39108e-05
0.00108295
2.28451e-06
8.49777e-06
0.00111236
-6.26545e-07
1.22389e-05
0.00110095
6.2467e-07
9.99451e-06
0.00109771
1.1359e-07
6.54294e-06
0.00110022
5.134e-08
8.88944e-06
0.00110855
6.0334e-07
5.0675e-07
0.00112314
-9.27385e-07
6.7084e-06
0.00109972
2.04042e-06
0.000887795
8.63475e-07
4.94175e-06
0.000834431
4.5641e-07
1.56381e-05
0.00108075
2.40078e-06
1.12608e-05
0.00111383
-5.98245e-07
1.4964e-05
0.00110308
7.34905e-07
1.29576e-05
0.00110059
1.659e-07
9.47629e-06
0.0011039
6.705e-08
1.13152e-05
0.00111295
7.21665e-07
3.04915e-06
0.00112827
-9.94735e-07
7.5364e-06
0.00110336
2.11979e-06
0.000890905
8.1484e-07
7.4041e-06
0.000821796
5.02645e-07
1.81658e-05
0.00107792
2.52715e-06
1.48732e-05
0.00111473
-5.0906e-07
1.85567e-05
0.00110491
8.71395e-07
1.6783e-05
0.00110334
2.558e-07
1.32131e-05
0.00110768
1.0805e-07
1.44173e-05
0.00111768
8.51795e-07
6.02895e-06
0.00113394
-1.03574e-06
8.67315e-06
0.00110807
2.19492e-06
0.00089557
8.2853e-07
1.05081e-05
0.000806006
6.17835e-07
2.17267e-05
0.00107419
2.69235e-06
1.95784e-05
0.00111501
-3.4055e-07
2.3272e-05
0.00110643
1.0445e-06
2.17167e-05
0.00110601
3.8965e-07
1.79818e-05
0.00111167
1.783e-07
1.84157e-05
0.00112291
9.9753e-07
9.62767e-06
0.00114038
-1.04987e-06
1.02199e-05
0.00111418
2.24601e-06
0.000902191
9.0653e-07
1.44189e-05
0.000786263
8.36395e-07
2.65807e-05
0.00106916
2.934e-06
2.56827e-05
0.0011146
-5.725e-08
2.94247e-05
0.00110764
1.2731e-06
2.8072e-05
0.00110864
5.8765e-07
2.40749e-05
0.00111599
2.9665e-07
2.35701e-05
0.00112885
1.17103e-06
1.4034e-05
0.00114788
-1.00995e-06
1.22874e-05
0.00112207
2.29593e-06
0.000911361
1.03362e-06
1.93173e-05
0.000761684
1.23153e-06
3.30555e-05
0.00106222
3.31821e-06
3.35716e-05
0.00111341
3.9005e-07
3.74145e-05
0.00110855
1.59671e-06
3.62521e-05
0.00111128
8.8308e-07
3.18809e-05
0.00112078
4.9215e-07
3.02229e-05
0.00113574
1.39107e-06
1.95435e-05
0.00115683
-8.882e-07
1.50439e-05
0.00113228
2.372e-06
0.000923828
1.22428e-06
2.54038e-05
0.000731332
1.92685e-06
4.15313e-05
0.00105255
3.93965e-06
4.37205e-05
0.0011113
1.07971e-06
4.77341e-05
0.00110918
2.078e-06
4.67639e-05
0.00111398
1.32952e-06
4.19073e-05
0.00112619
8.0975e-07
3.88524e-05
0.00114391
1.69666e-06
2.6554e-05
0.00116772
-6.5625e-07
1.87225e-05
0.00114557
2.50603e-06
0.000940548
1.52192e-06
3.27919e-05
0.000694214
3.08777e-06
5.23694e-05
0.00103909
4.94253e-06
5.66828e-05
0.00110807
2.12419e-06
6.09816e-05
0.00110953
2.81422e-06
6.02446e-05
0.00111681
2.01165e-06
5.48156e-05
0.00113239
1.3206e-06
5.00935e-05
0.00115373
2.15468e-06
3.55714e-05
0.00118117
-2.6125e-07
2.3606e-05
0.00116296
2.75212e-06
0.000962863
1.99372e-06
4.15308e-05
0.000649573
4.93061e-06
6.59645e-05
0.00102038
6.52895e-06
7.30881e-05
0.00110336
3.68457e-06
7.7879e-05
0.00110961
3.94521e-06
7.74921e-05
0.00111978
3.04571e-06
7.14784e-05
0.00113951
2.13092e-06
6.48104e-05
0.00116559
2.8558e-06
4.73264e-05
0.00119798
3.8755e-07
3.01338e-05
0.00118579
3.19788e-06
0.000992662
2.7376e-06
5.14691e-05
0.000596933
7.70896e-06
8.24939e-05
0.000994723
8.91507e-06
9.35418e-05
0.00109648
5.946e-06
9.92552e-05
0.00110933
5.66078e-06
9.95007e-05
0.00112282
4.59257e-06
9.30631e-05
0.00114758
3.38948e-06
8.42282e-05
0.00117991
3.92523e-06
6.29107e-05
0.00121916
1.41745e-06
3.89805e-05
0.00121591
3.96387e-06
0.0010327
3.8936e-06
6.21922e-05
0.000536609
1.16126e-05
0.000101957
0.000960133
1.23489e-05
0.000118556
0.00108622
9.12839e-06
0.000126043
0.00110836
8.21087e-06
0.00012751
0.00112573
6.87159e-06
0.000121155
0.00115645
5.293e-06
0.000110145
0.001197
5.53509e-06
8.39998e-05
0.00124592
2.98939e-06
5.12036e-05
0.00125597
5.22633e-06
0.00108702
5.65393e-06
7.28292e-05
0.000469449
1.64668e-05
0.00012362
0.000914675
1.6946e-05
0.000148263
0.00107056
1.3479e-05
0.000159182
0.00110588
1.19078e-05
0.000163029
0.00112801
1.01709e-05
0.000157902
0.00116553
8.09259e-06
0.000145252
0.00121672
7.90175e-06
0.00011334
0.00127947
5.30037e-06
6.86999e-05
0.00130963
7.20574e-06
0.00116261
8.26875e-06
8.18733e-05
0.000396624
2.14385e-05
0.000146025
0.000856621
2.25295e-05
0.000182272
0.00104661
1.92448e-05
0.000199504
0.00110033
1.71291e-05
0.00020788
0.00112875
1.48051e-05
0.000206228
0.00117366
1.20296e-05
0.000193683
0.00123829
1.12125e-05
0.000155542
0.00132079
8.52732e-06