/*--------------------------------*- C++ -*----------------------------------*\
| =========                 |                                                 |
| \\      /  F ield         | OpenFOAM: The Open Source CFD Toolbox           |
|  \\    /   O peration     | Version:  4.1                                   |
|   \\  /    A nd           | Web:      www.OpenFOAM.org                      |
|    \\/     M anipulation  |                                                 |
\*---------------------------------------------------------------------------*/
FoamFile
{
    version     2.0;
    format      ascii;
    class       volScalarField;
    location    "90";
    object      T;
}
// * * * * * * * * * * * * * * * * * * * * * * * * * * * * * * * * * * * * * //

dimensions      [0 0 0 1 0 0 0];

internalField   nonuniform List<scalar> 
12000
(
0.999583
1.00358
0.999807
1.00054
1.00055
1.00055
1.00053
0.999806
1.00359
0.999558
0.994979
0.996274
0.99554
0.996991
0.997021
0.997014
0.996979
0.995539
0.996307
0.994933
0.999372
0.994202
0.997396
0.998257
0.998159
0.998157
0.99825
0.997414
0.994232
0.999302
1.00385
0.995572
1.00083
1.00049
1.00029
1.00027
1.00049
1.00085
0.99556
1.00374
1.00496
0.996286
1.00237
1.00118
1.00117
1.00107
1.00118
1.00239
0.996229
1.00482
1.00441
0.996219
1.0025
1.00085
1.00118
1.00107
1.00085
1.00249
0.996173
1.00423
1.00371
0.996266
1.00232
1.00037
1.00095
1.00093
1.00035
1.00228
0.996255
1.00349
1.00314
0.996556
1.00214
0.999989
1.00075
1.00079
0.999954
1.00209
0.996577
1.00289
1.00259
0.996884
1.00192
0.999662
1.00054
1.00062
0.999612
1.00184
0.996919
1.00231
1.00208
0.997164
1.00163
0.999363
1.00033
1.00042
0.999312
1.00155
0.997198
1.00175
1.00166
0.997373
1.00134
0.999144
1.00014
1.00023
0.999067
1.00125
0.997411
1.00127
1.00135
0.997551
1.0011
0.999011
0.999983
1.00009
0.998896
1.00101
0.997585
1.0009
1.00117
0.997754
1.0009
0.998942
0.999873
0.999988
0.998808
1.00081
0.997746
1.00064
1.00109
0.997946
1.00075
0.998924
0.999801
0.999921
0.998776
1.00065
0.997891
1.00043
1.00109
0.998131
1.00065
0.998946
0.999761
0.999884
0.998784
1.00053
0.998022
1.00025
1.00117
0.99832
1.00058
0.998998
0.999745
0.999871
0.998822
1.00043
0.99814
1.00011
1.00134
0.998518
1.00052
0.999075
0.99975
0.99988
0.998879
1.00035
0.99824
0.999982
1.0016
0.998742
1.00048
0.999169
0.999772
0.999906
0.998954
1.0003
0.99832
0.999875
1.00191
0.999024
1.00043
0.999273
0.999813
0.999956
0.999048
1.00026
0.998379
0.999775
1.00225
0.999409
1.00036
0.999387
0.999876
1.00004
0.999164
1.00026
0.998417
0.999671
1.00252
0.999898
1.00024
0.999488
0.999955
1.00016
0.999304
1.00029
0.998425
0.999537
1.00253
1.00044
1.00004
0.999534
1.00003
1.00031
0.999476
1.00034
0.998385
0.999328
1.00193
1.00087
0.999675
0.999427
1.00005
1.00045
0.999675
1.00041
0.998264
0.998956
1.00011
1.00073
0.998983
0.998971
0.99985
1.00049
0.999858
1.00046
0.997999
0.998259
0.996009
0.998898
0.997413
0.997704
0.999024
1.00017
0.999914
1.00049
0.997515
0.996854
0.987323
0.993124
0.993705
0.994696
0.996757
0.998873
0.999477
1.00038
0.996795
0.994223
0.968335
0.979159
0.985077
0.988018
0.991567
0.995505
0.997941
1.00012
0.996415
0.988765
0.943814
0.96068
0.970543
0.975487
0.981088
0.987627
0.993131
0.998214
0.998373
0.981894
0.911664
0.931944
0.945227
0.953167
0.9624
0.972842
0.983797
0.993638
1.01019
0.973866
0.85696
0.874155
0.895198
0.911707
0.926218
0.939246
0.955795
0.966897
1.03423
1.02632
1.00359
1.00675
1.00301
1.00391
1.00387
1.00387
1.00391
1.00301
1.00679
1.00354
0.996298
0.996863
0.996392
0.998265
0.998221
0.998219
0.99825
0.996387
0.996959
0.99624
0.994235
0.98974
0.992956
0.993843
0.993639
0.993629
0.993825
0.99297
0.989826
0.994131
0.995617
0.987826
0.993448
0.992816
0.99245
0.99245
0.992795
0.993474
0.987909
0.995468
0.996341
0.987434
0.994339
0.992675
0.992441
0.992501
0.992655
0.994364
0.987536
0.996152
0.996289
0.987519
0.994654
0.992459
0.992628
0.99271
0.992432
0.994668
0.987594
0.9961
0.996358
0.988188
0.994892
0.992426
0.993038
0.993084
0.992389
0.994891
0.988212
0.996185
0.996679
0.989334
0.995353
0.992736
0.993675
0.993693
0.992687
0.995322
0.989299
0.996501
0.997048
0.990589
0.995896
0.993258
0.994389
0.994402
0.993189
0.995847
0.990509
0.996832
0.997382
0.991706
0.996379
0.99382
0.995045
0.995067
0.993727
0.996308
0.991606
0.997084
0.997659
0.992694
0.996788
0.994352
0.995607
0.995644
0.994246
0.996688
0.992571
0.997263
0.99792
0.993586
0.997137
0.99486
0.996091
0.996143
0.994747
0.997011
0.993425
0.997413
0.998232
0.99434
0.997447
0.99535
0.996512
0.996581
0.995217
0.997297
0.994152
0.997556
0.998558
0.994991
0.997733
0.995819
0.996883
0.99697
0.995658
0.997555
0.994768
0.997682
0.9989
0.99557
0.99798
0.996257
0.997209
0.997315
0.996067
0.997782
0.99528
0.997811
0.999267
0.996089
0.998201
0.996663
0.997499
0.997622
0.996445
0.997983
0.995692
0.997947
0.99965
0.996577
0.998401
0.997037
0.997758
0.997898
0.996793
0.998169
0.996032
0.99805
1.00003
0.99705
0.99858
0.997375
0.997989
0.998147
0.997111
0.998342
0.996308
0.998102
1.0004
0.997515
0.99872
0.997674
0.998193
0.998372
0.997394
0.998498
0.996516
0.998095
1.00074
0.997964
0.998793
0.997917
0.998366
0.998568
0.997643
0.998622
0.996648
0.998013
1.00094
0.998406
0.998777
0.998083
0.998498
0.998731
0.997853
0.9987
0.99668
0.997827
1.00083
0.998811
0.998646
0.998134
0.998562
0.998843
0.99801
0.998716
0.996575
0.997477
1.00018
0.999053
0.998322
0.997998
0.998502
0.998868
0.998091
0.998645
0.996274
0.996855
0.998595
0.998839
0.997653
0.997507
0.998178
0.998711
0.998047
0.998444
0.995687
0.995777
0.995186
0.997441
0.996234
0.996307
0.997294
0.998178
0.99778
0.998074
0.994697
0.993829
0.988074
0.993202
0.993086
0.993629
0.995201
0.996794
0.997012
0.997462
0.993251
0.990481
0.97378
0.982879
0.986047
0.987991
0.990762
0.99373
0.995279
0.99661
0.991765
0.984053
0.95082
0.964742
0.972694
0.977111
0.981853
0.986975
0.990899
0.994529
0.992299
0.975833
0.915207
0.934428
0.948514
0.957549
0.965834
0.974124
0.982327
0.989715
1.00107
0.96471
0.865205
0.884774
0.904283
0.920805
0.934831
0.946519
0.960046
0.968468
1.02485
1.00624
0.999819
1.00301
0.998896
0.999618
0.999577
0.999576
0.999614
0.998897
1.00306
0.999753
0.99557
0.996402
0.996001
0.997902
0.997907
0.9979
0.997879
0.995984
0.996495
0.9955
0.997443
0.992971
0.996511
0.997542
0.997367
0.997353
0.997516
0.99653
0.993067
0.997308
1.00089
0.993464
0.999435
0.998787
0.998441
0.998433
0.998761
0.999463
0.993525
1.00074
1.00244
0.994355
1.00165
0.999837
0.999728
0.999735
0.999809
1.00167
0.99438
1.00229
1.00257
0.994671
1.00229
0.999948
1.00038
1.00037
0.999918
1.0023
0.99466
1.00242
1.0024
0.994906
1.00219
0.999594
1.00053
1.00051
0.999563
1.00219
0.994867
1.00223
1.00224
0.995356
1.00201
0.999272
1.00055
1.00052
0.999244
1.00201
0.995289
1.00204
1.00203
0.995891
1.00186
0.999089
1.00056
1.00054
0.999053
1.00184
0.995789
1.00183
1.00177
0.996365
1.00168
0.998968
1.00052
1.00052
0.998915
1.00164
0.996243
1.00153
1.00152
0.996758
1.00145
0.998866
1.00043
1.00046
0.9988
1.00139
0.996626
1.0012
1.00133
0.99709
1.00121
0.998798
1.00032
1.00036
0.998716
1.00114
0.996951
1.00092
1.00122
0.997368
1.001
0.998771
1.0002
1.00026
0.99867
1.00091
0.997232
1.00068
1.00116
0.997618
1.00082
0.99878
1.00009
1.00017
0.998658
1.0007
0.99747
1.00049
1.00117
0.99784
1.00065
0.998813
0.999988
1.0001
0.998669
1.00052
0.997663
1.00032
1.00125
0.998037
1.0005
0.998861
0.999902
1.00003
0.998698
1.00037
0.997818
1.00017
1.00138
0.998228
1.00037
0.99892
0.999832
0.999981
0.99874
1.00025
0.997941
1.00002
1.00156
0.998432
1.00025
0.998985
0.999776
0.999945
0.998789
1.00015
0.998039
0.999868
1.00176
0.998655
1.00014
0.999045
0.999733
0.999921
0.998842
1.00008
0.998104
0.999694
1.00193
0.998896
1.00001
0.999086
0.999693
0.999905
0.998893
1.00001
0.998115
0.99949
1.00201
0.999154
0.99982
0.999082
0.999645
0.99989
0.998936
0.999933
0.998053
0.999219
1.00183
0.999396
0.99954
0.998993
0.999562
0.99986
0.998959
0.999838
0.997883
0.998822
1.00115
0.999491
0.99909
0.998745
0.999391
0.999785
0.998943
0.999696
0.997553
0.99819
0.999493
0.999132
0.998312
0.998184
0.99901
0.999587
0.998851
0.999473
0.996977
0.997145
0.996075
0.997666
0.99683
0.997006
0.998173
0.999108
0.998619
0.999154
0.996049
0.995287
0.989547
0.993803
0.993818
0.994594
0.996377
0.997985
0.998044
0.998717
0.994736
0.992103
0.977775
0.985514
0.987814
0.989874
0.992786
0.995625
0.996839
0.998309
0.993544
0.985976
0.958907
0.970563
0.976684
0.981085
0.985839
0.990577
0.993816
0.997342
0.994747
0.978145
0.930551
0.945961
0.957426
0.966065
0.973911
0.981338
0.988281
0.995103
1.00538
0.967908
0.889231
0.907038
0.92467
0.939308
0.95128
0.960858
0.972059
0.978698
1.03342
1.00992
1.00055
1.00392
0.999619
1.00039
1.00036
1.00036
1.00039
0.999617
1.00397
1.00048
0.997023
0.998278
0.997906
1.00002
1.00004
1.00003
0.999995
0.997886
0.998374
0.996951
0.998313
0.993861
0.997549
0.998832
0.998652
0.998637
0.998803
0.997569
0.993956
0.998164
1.00058
0.992831
0.99879
0.998236
0.997847
0.997835
0.998211
0.998818
0.99288
1.00041
1.00126
0.992704
0.999842
0.997964
0.997795
0.997792
0.99794
0.999865
0.992719
1.00109
1.00093
0.992491
0.999946
0.997422
0.997786
0.997792
0.997396
0.99996
0.99251
1.00072
1.00047
0.992435
0.999585
0.996721
0.997589
0.997602
0.996691
0.99958
0.992455
1.00023
1.0001
0.992728
0.999262
0.996193
0.997394
0.997415
0.996157
0.999234
0.992718
0.999864
0.99978
0.993226
0.999074
0.995934
0.997323
0.997358
0.995888
0.999031
0.993192
0.999526
0.999513
0.993763
0.998947
0.995863
0.997339
0.997392
0.995799
0.998886
0.99372
0.999197
0.999327
0.994278
0.998843
0.995901
0.997388
0.997459
0.995812
0.998765
0.994232
0.998924
0.999234
0.994774
0.998773
0.996022
0.997458
0.997547
0.995908
0.998683
0.994723
0.998719
0.999236
0.99525
0.998743
0.99621
0.997553
0.997663
0.996072
0.998645
0.99518
0.998586
0.999316
0.995703
0.998748
0.996447
0.997673
0.997805
0.996284
0.99864
0.99559
0.998522
0.999465
0.996129
0.998775
0.996712
0.997809
0.99796
0.996524
0.998656
0.995951
0.998506
0.999668
0.996532
0.99882
0.996991
0.997951
0.998122
0.996775
0.998693
0.996272
0.998503
0.999919
0.996921
0.998876
0.997271
0.998098
0.998286
0.997027
0.998746
0.996556
0.998496
1.00021
0.997299
0.998929
0.997542
0.998245
0.998449
0.997273
0.998807
0.996794
0.998474
1.00051
0.997674
0.998966
0.997793
0.998385
0.998605
0.997506
0.99887
0.996977
0.998424
1.0008
0.998056
0.99897
0.998006
0.998513
0.998751
0.997719
0.998926
0.997092
0.998325
1.00101
0.998444
0.998914
0.998159
0.998617
0.998882
0.997908
0.998965
0.997119
0.998142
1.00099
0.998809
0.998771
0.998218
0.998679
0.998987
0.998063
0.99897
0.997026
0.997823
1.00053
0.999052
0.998476
0.998124
0.998661
0.999048
0.998179
0.998926
0.996767
0.997268
0.999214
0.998913
0.997907
0.997756
0.998475
0.999017
0.99824
0.998821
0.996273
0.996314
0.996365
0.997825
0.996753
0.996886
0.997946
0.998796
0.99823
0.998687
0.995477
0.994602
0.990837
0.994726
0.994362
0.995055
0.996712
0.998145
0.998042
0.998579
0.994418
0.991672
0.980886
0.987951
0.989567
0.991466
0.994176
0.996663
0.997541
0.998781
0.993737
0.986059
0.964469
0.975219
0.980404
0.984588
0.988986
0.993079
0.995674
0.998811
0.995818
0.978954
0.938961
0.953455
0.964013
0.972261
0.979412
0.985755
0.991646
0.997891
1.00785
0.970201
0.900763
0.918115
0.935177
0.94861
0.958771
0.966392
0.976067
0.981799
1.03685
1.01266
1.00057
1.00387
0.999579
1.00036
1.00032
1.00032
1.00035
0.999575
1.00393
1.0005
0.997055
0.998238
0.997916
1.00005
1.00006
1.00005
1.00002
0.997895
0.998342
0.996983
0.998222
0.993664
0.997382
0.998663
0.998457
0.998441
0.998629
0.997401
0.993764
0.998076
1.00035
0.992506
0.99847
0.997865
0.997436
0.997422
0.997836
0.998493
0.992547
1.00019
1.00116
0.992564
0.999768
0.997822
0.997618
0.997612
0.997794
0.999784
0.992567
1.001
1.00116
0.992774
1.0004
0.997822
0.998182
0.998182
0.997792
1.0004
0.99277
1.00096
1.00099
0.993158
1.00054
0.997635
0.998539
0.998544
0.997599
1.00051
0.993131
1.00079
1.00084
0.993764
1.00054
0.997455
0.998724
0.998738
0.997409
1.0005
0.993697
1.00065
1.0007
0.99444
1.00054
0.997399
0.998881
0.99891
0.997341
1.00049
0.994359
1.00047
1.00055
0.995066
1.0005
0.997432
0.999018
0.999066
0.997354
1.00044
0.994984
1.00026
1.00043
0.995602
1.00041
0.997495
0.999103
0.999172
0.997394
1.00035
0.995532
1.00004
1.00035
0.996067
1.00029
0.997578
0.999141
0.999233
0.997454
1.00024
0.995997
0.999853
1.00033
0.996479
1.00019
0.99769
0.999162
0.999274
0.997542
1.00013
0.996384
0.999723
1.00035
0.996848
1.0001
0.997828
0.999179
0.999316
0.997658
1.00003
0.996715
0.999623
1.00043
0.997178
1.00002
0.997982
0.9992
0.99936
0.99779
0.999948
0.996997
0.999539
1.00057
0.997476
0.999946
0.998142
0.999221
0.999402
0.997928
0.999876
0.997236
0.99946
1.00075
0.997754
0.999882
0.998301
0.999244
0.999444
0.998067
0.999817
0.997437
0.999378
1.00096
0.998023
0.999819
0.998454
0.999266
0.999485
0.998201
0.99977
0.997593
0.999283
1.0012
0.998295
0.999748
0.99859
0.999286
0.999524
0.998328
0.999731
0.9977
0.999162
1.00142
0.998583
0.999653
0.998699
0.9993
0.999558
0.998441
0.999692
0.997746
0.998998
1.00157
0.998894
0.999516
0.998763
0.999301
0.999586
0.998537
0.999643
0.997713
0.998758
1.00153
0.999208
0.999309
0.998753
0.999275
0.999602
0.998611
0.999571
0.997571
0.998391
1.00111
0.999439
0.998972
0.998614
0.99919
0.999591
0.998661
0.999465
0.997272
0.997801
0.999928
0.999348
0.998391
0.998238
0.998971
0.999515
0.998678
0.999319
0.996756
0.996829
0.997336
0.998418
0.997286
0.997416
0.998469
0.999299
0.998661
0.999172
0.995964
0.995126
0.992254
0.995663
0.99506
0.995728
0.997357
0.998731
0.998523
0.999099
0.994949
0.992238
0.982964
0.989491
0.990624
0.992422
0.995064
0.997428
0.99814
0.99938
0.99435
0.986678
0.967142
0.977465
0.982016
0.985984
0.990234
0.994113
0.996456
0.99952
0.996526
0.979585
0.94189
0.956254
0.966261
0.97416
0.981036
0.987067
0.99263
0.998688
1.00864
0.970569
0.904217
0.921549
0.938324
0.951183
0.96079
0.967941
0.977252
0.98261
1.03777
1.01285
1.00057
1.00387
0.999579
1.00036
1.00032
1.00032
1.00035
0.999576
1.00393
1.0005
0.997054
0.998237
0.997915
1.00005
1.00006
1.00004
1.00002
0.997895
0.998339
0.99698
0.998223
0.993661
0.997379
0.998659
0.998451
0.998437
0.998627
0.9974
0.99376
0.998073
1.00035
0.992499
0.998467
0.997861
0.99743
0.997417
0.997832
0.998491
0.992543
1.00019
1.00117
0.992555
0.999769
0.99782
0.997616
0.997606
0.997791
0.999784
0.992566
1.001
1.00117
0.992766
1.0004
0.997821
0.99818
0.998176
0.99779
1.0004
0.992768
1.00096
1.00103
0.993138
1.00053
0.997631
0.998535
0.99854
0.997598
1.00051
0.993126
1.00079
1.00089
0.99373
1.00054
0.997446
0.998718
0.998733
0.997405
1.0005
0.993691
1.00066
1.00074
0.994414
1.00054
0.997388
0.998874
0.998905
0.997335
1.00049
0.994359
1.00047
1.00055
0.995055
1.00051
0.997419
0.999013
0.999062
0.997349
1.00044
0.994995
1.00023
1.00041
0.995601
1.00042
0.997482
0.999097
0.999168
0.99739
1.00035
0.995543
1.00002
1.00033
0.996066
1.00031
0.997565
0.999133
0.999228
0.997449
1.00023
0.996003
0.999841
1.0003
0.996477
1.0002
0.997676
0.999151
0.999268
0.997535
1.00012
0.996386
0.999724
1.00032
0.996844
1.0001
0.997813
0.999166
0.999307
0.997647
1.00001
0.99671
0.99964
1.00041
0.997167
1.00002
0.997964
0.999184
0.999347
0.997773
0.999918
0.996988
0.99956
1.00053
0.99746
0.999939
0.998121
0.999202
0.999385
0.997905
0.999844
0.997227
0.99947
1.0007
0.997732
0.999867
0.998276
0.99922
0.999422
0.99804
0.999784
0.997427
0.999372
1.00091
0.997994
0.999795
0.998422
0.999235
0.999456
0.998171
0.999733
0.997582
0.999268
1.00114
0.998258
0.999713
0.998551
0.999247
0.999486
0.998291
0.999686
0.997683
0.999142
1.00135
0.998534
0.999607
0.998651
0.999251
0.999511
0.998398
0.999639
0.99772
0.998975
1.00149
0.998831
0.999454
0.998702
0.999241
0.999529
0.998487
0.99958
0.997674
0.99873
1.00143
0.999127
0.999228
0.998677
0.9992
0.999528
0.99855
0.999493
0.997515
0.998354
1.00098
0.999334
0.998868
0.998516
0.999093
0.999493
0.998579
0.999365
0.997194
0.99775
0.999737
0.999205
0.998257
0.998108
0.998841
0.999385
0.998566
0.999191
0.996646
0.996757
0.997052
0.998209
0.997106
0.997238
0.99829
0.99912
0.998504
0.999004
0.99581
0.995017
0.991846
0.995348
0.994807
0.995481
0.997107
0.998482
0.998297
0.998867
0.994735
0.992075
0.982446
0.989044
0.990263
0.992075
0.99471
0.997073
0.997811
0.999046
0.994045
0.986428
0.966581
0.976893
0.981531
0.98552
0.989758
0.993633
0.996006
0.999074
0.99613
0.979282
0.941438
0.955622
0.965611
0.973509
0.980361
0.986371
0.991955
0.998023
1.00802
0.970078
0.903664
0.920817
0.937549
0.950435
0.960046
0.967195
0.976544
0.981963
1.03721
1.01261
1.00055
1.00391
0.999618
1.00039
1.00036
1.00035
1.00039
0.999613
1.00397
1.00048
0.997022
0.998268
0.997893
1.00001
1.00003
1.00002
0.999978
0.997871
0.998366
0.996939
0.998309
0.993857
0.997541
0.998822
0.998636
0.998623
0.99879
0.997558
0.993946
0.998167
1.0006
0.99282
0.998788
0.998232
0.997838
0.997826
0.998209
0.998818
0.99287
1.00042
1.00133
0.992657
0.999843
0.997963
0.997794
0.997786
0.997944
0.999869
0.992706
1.00111
1.001
0.992435
0.999961
0.997422
0.997792
0.997787
0.997401
0.999959
0.992461
1.00079
1.00049
0.992402
0.999611
0.996719
0.997598
0.9976
0.996692
0.999579
0.992383
1.0003
1.00008
0.992716
0.999295
0.996191
0.997405
0.997418
0.996152
0.999241
0.992658
0.999893
0.999747
0.993228
0.999106
0.995931
0.997336
0.997363
0.995878
0.99904
0.993146
0.999524
0.999471
0.993771
0.998973
0.995856
0.997351
0.997396
0.995784
0.998898
0.993677
0.999188
0.999284
0.99429
0.99886
0.995891
0.997396
0.99746
0.995797
0.998785
0.99419
0.998906
0.999197
0.99479
0.998782
0.996009
0.997462
0.997548
0.99589
0.998706
0.994679
0.998696
0.999198
0.995268
0.998747
0.996197
0.997553
0.997662
0.996051
0.998674
0.995137
0.998556
0.999275
0.995718
0.998747
0.996434
0.997668
0.9978
0.99626
0.998676
0.995555
0.998477
0.999419
0.996139
0.998765
0.996696
0.997798
0.997951
0.996495
0.998693
0.995923
0.998447
0.999616
0.996534
0.998797
0.996967
0.997935
0.998108
0.99674
0.998723
0.996248
0.998437
0.999856
0.996912
0.998838
0.997239
0.998075
0.998268
0.996987
0.998768
0.996532
0.998423
1.00013
0.997275
0.998879
0.997501
0.998212
0.998425
0.99723
0.998819
0.99677
0.998396
1.00041
0.997633
0.998903
0.99774
0.998341
0.998575
0.997459
0.99887
0.996952
0.998348
1.00067
0.997991
0.998891
0.99794
0.998457
0.998713
0.99767
0.998915
0.997064
0.998253
1.00082
0.998344
0.998815
0.998076
0.998545
0.998832
0.997854
0.998942
0.997088
0.998068
1.00074
0.998663
0.998645
0.998114
0.998587
0.998918
0.997999
0.99893
0.996986
0.997745
1.00018
0.998834
0.998307
0.997985
0.998534
0.998946
0.998092
0.998862
0.996709
0.997179
0.998715
0.998573
0.99766
0.997555
0.998287
0.998856
0.998107
0.998716
0.996179
0.996204
0.995609
0.997266
0.996365
0.996573
0.997652
0.998535
0.998009
0.998506
0.995315
0.994438
0.989695
0.993821
0.993729
0.994547
0.99624
0.997716
0.997667
0.998266
0.994152
0.991413
0.979342
0.986599
0.988554
0.990637
0.993413
0.995958
0.996906
0.998223
0.993271
0.985599
0.962639
0.973417
0.978925
0.98333
0.987834
0.992016
0.99471
0.997942
0.995139
0.978374
0.936948
0.951133
0.961818
0.970274
0.97758
0.98404
0.990036
0.996344
1.00656
0.969001
0.898063
0.915152
0.932284
0.946013
0.956485
0.964373
0.974255
0.980137
1.03565
1.01233
0.999819
1.00301
0.998896
0.999618
0.999577
0.999575
0.999611
0.998892
1.00306
0.999752
0.995571
0.996399
0.995985
0.997885
0.997892
0.997885
0.997858
0.995966
0.996493
0.995494
0.997459
0.992984
0.996529
0.99756
0.997384
0.997373
0.997534
0.996551
0.993088
0.997328
1.00092
0.993464
0.999457
0.998806
0.998463
0.998453
0.998784
0.999488
0.993524
1.00077
1.00246
0.994336
1.00167
0.999848
0.999745
0.999735
0.999828
1.00168
0.994349
1.00233
1.00258
0.994638
1.00229
0.99994
1.00036
1.00036
0.999923
1.00231
0.994619
1.00244
1.00239
0.994868
1.00218
0.999569
1.00048
1.00048
0.999543
1.00219
0.99484
1.00221
1.00221
0.995321
1.00199
0.999243
1.00047
1.00049
0.9992
1.00199
0.995266
1.00201
1.00199
0.995857
1.00183
0.999052
1.00047
1.0005
0.998992
1.00181
0.995763
1.00179
1.00174
0.996327
1.00163
0.998928
1.00043
1.00047
0.998846
1.00159
0.996205
1.0015
1.00149
0.996721
1.0014
0.998831
1.00034
1.0004
0.998726
1.00135
0.996573
1.00119
1.00128
0.997054
1.00116
0.998768
1.00023
1.0003
0.998636
1.0011
0.996892
1.0009
1.00117
0.997329
1.00095
0.998747
1.00011
1.00021
0.99859
1.00088
0.997175
1.00066
1.00111
0.997573
1.00077
0.998756
1
1.00012
0.998578
1.00067
0.997417
1.00046
1.00112
0.997786
1.00059
0.998783
0.999905
1.00004
0.998591
1.00049
0.997615
1.00027
1.00118
0.997985
1.00044
0.998821
0.99982
0.999968
0.998618
1.00034
0.997773
1.00012
1.00129
0.99818
1.0003
0.99887
0.999749
0.999913
0.998658
1.0002
0.997902
0.999967
1.00145
0.998368
1.00017
0.99892
0.999688
0.999871
0.998707
1.00009
0.997999
0.999813
1.00161
0.998564
1.00004
0.998963
0.999635
0.99984
0.998758
1.00001
0.998058
0.999642
1.00174
0.99877
0.999885
0.998983
0.999582
0.999815
0.998806
0.999927
0.998064
0.999433
1.00175
0.998986
0.999671
0.998956
0.999513
0.999786
0.998841
0.999844
0.997997
0.99915
1.00148
0.999171
0.999349
0.998834
0.999399
0.999731
0.998846
0.99973
0.997814
0.998735
1.00065
0.999178
0.998835
0.998529
0.999175
0.999606
0.998794
0.999553
0.997456
0.998073
0.998762
0.99866
0.997942
0.997863
0.998697
0.999315
0.99863
0.999266
0.996821
0.996976
0.994965
0.996883
0.996232
0.996484
0.997673
0.99866
0.998251
0.998823
0.995781
0.995015
0.987774
0.992472
0.992819
0.993715
0.995544
0.997227
0.997406
0.99816
0.994276
0.991658
0.975181
0.983397
0.986181
0.988412
0.991405
0.99435
0.995729
0.997329
0.992736
0.985172
0.955629
0.967606
0.974296
0.978881
0.983714
0.988572
0.992019
0.995727
0.993452
0.976978
0.925859
0.941425
0.953572
0.962599
0.970623
0.978174
0.985303
0.992263
1.00303
0.96556
0.882406
0.900246
0.918622
0.933968
0.946541
0.956629
0.968251
0.975108
1.03063
1.00867
1.0036
1.00678
1.00306
1.00396
1.00392
1.00392
1.00396
1.00306
1.00684
1.00355
0.996318
0.996946
0.996476
0.99835
0.99831
0.998303
0.998332
0.996472
0.99707
0.996278
0.994239
0.989818
0.993041
0.993916
0.993711
0.993703
0.9939
0.993062
0.989941
0.994165
0.99561
0.987859
0.99348
0.992835
0.992484
0.992477
0.992815
0.993496
0.987912
0.995507
0.996332
0.987419
0.994325
0.992664
0.992495
0.992484
0.99264
0.99433
0.987416
0.996197
0.996276
0.987475
0.994607
0.992421
0.992675
0.992664
0.99241
0.994608
0.987419
0.996113
0.996341
0.988129
0.994827
0.992359
0.99303
0.993033
0.992356
0.994822
0.988039
0.996147
0.996656
0.989271
0.99528
0.992657
0.99362
0.993635
0.992635
0.995263
0.989154
0.996425
0.997018
0.990527
0.995823
0.993166
0.994307
0.994333
0.993122
0.995793
0.990388
0.996743
0.997323
0.991671
0.996312
0.993723
0.994954
0.994988
0.993656
0.99626
0.991502
0.996995
0.997585
0.992681
0.996718
0.994265
0.995518
0.995564
0.994178
0.996645
0.992464
0.997188
0.997865
0.993557
0.997057
0.994783
0.996002
0.996067
0.994671
0.996975
0.993303
0.997351
0.998183
0.994296
0.997356
0.995277
0.996421
0.996506
0.995139
0.997276
0.994037
0.997486
0.998494
0.994941
0.997633
0.995745
0.996786
0.996892
0.995578
0.997532
0.99467
0.997599
0.998816
0.99551
0.997876
0.996178
0.997107
0.997232
0.995983
0.997748
0.99519
0.997723
0.999149
0.996022
0.99809
0.996572
0.997389
0.997533
0.996356
0.997945
0.995604
0.997857
0.99948
0.996498
0.998279
0.996932
0.997637
0.9978
0.996697
0.99812
0.995945
0.997954
0.999822
0.996939
0.998433
0.997251
0.997853
0.998035
0.997003
0.998273
0.996221
0.997997
1.00015
0.997354
0.998532
0.997519
0.998034
0.998238
0.997273
0.998398
0.996425
0.997982
1.00044
0.997745
0.998558
0.997727
0.998179
0.998408
0.997503
0.99849
0.996546
0.997892
1.00058
0.998124
0.998488
0.997856
0.998276
0.998539
0.997687
0.998538
0.996563
0.997692
1.00038
0.998472
0.998298
0.997863
0.998295
0.998607
0.997812
0.99852
0.996438
0.997326
0.999635
0.998657
0.997911
0.99766
0.998173
0.998569
0.997846
0.998405
0.99611
0.996681
0.997851
0.998333
0.997154
0.997064
0.997749
0.998316
0.997723
0.99814
0.995477
0.995571
0.993966
0.996621
0.995535
0.995649
0.996667
0.997613
0.997324
0.997673
0.994415
0.993572
0.985653
0.991525
0.991934
0.992584
0.994223
0.995935
0.996318
0.996891
0.992849
0.990142
0.969968
0.979956
0.984075
0.98626
0.989167
0.992349
0.994156
0.995717
0.991171
0.983524
0.946499
0.961264
0.970086
0.974681
0.979478
0.984776
0.98902
0.992999
0.991336
0.975139
0.908512
0.928605
0.943821
0.953382
0.961937
0.970386
0.978911
0.986793
0.999368
0.963096
0.855898
0.875599
0.895565
0.912701
0.927612
0.940048
0.954312
0.963288
1.02182
1.00584
0.999563
1.00354
0.999752
1.00048
1.00049
1.00049
1.00047
0.999751
1.00356
0.999502
0.994941
0.996229
0.995482
0.996924
0.996953
0.996949
0.996911
0.995479
0.996282
0.994863
0.999324
0.994121
0.997298
0.99815
0.998051
0.998044
0.998137
0.99732
0.994179
0.999164
1.0038
0.995502
1.00075
1.00041
1.00017
1.00017
1.00041
1.00078
0.99554
1.00362
1.00493
0.996245
1.00232
1.00113
1.00101
1.00102
1.00113
1.00236
0.996251
1.00477
1.00438
0.99621
1.00248
1.00084
1.00105
1.00106
1.00081
1.00249
0.996185
1.00424
1.00369
0.996285
1.00233
1.0004
1.00092
1.00092
1.00034
1.00231
0.996246
1.00355
1.00313
0.996594
1.00217
1.00003
1.00079
1.00079
0.999977
1.00211
0.996553
1.00296
1.00259
0.996935
1.00196
0.999713
1.00062
1.00063
0.999662
1.00187
0.996901
1.00238
1.00208
0.997196
1.00168
0.99942
1.00042
1.00045
0.999369
1.00157
0.997187
1.00181
1.00165
0.997394
1.0014
0.999184
1.00022
1.00027
0.999124
1.00127
0.997414
1.00132
1.00134
0.997593
1.00115
0.999036
1.00007
1.00012
0.998962
1.00101
0.997598
1.00095
1.00116
0.997805
1.00095
0.99896
0.999955
1.00002
0.99887
1.00079
0.997746
1.00067
1.00107
0.997991
1.0008
0.998939
0.999882
0.99995
0.998832
1.00063
0.997882
1.00045
1.00107
0.998169
1.00068
0.998961
0.999837
0.999915
0.998834
1.00052
0.998015
1.00027
1.00115
0.998344
1.0006
0.999013
0.999813
0.999902
0.998863
1.00042
0.998134
1.00013
1.0013
0.998523
1.00054
0.999086
0.999808
0.999912
0.998915
1.00036
0.998236
1.00001
1.00154
0.998737
1.00048
0.999174
0.999824
0.999948
0.998992
1.00033
0.99832
0.999911
1.00182
0.999014
1.00041
0.999274
0.999862
1.00001
0.999095
1.00033
0.998392
0.999823
1.00211
0.999388
1.00032
0.999377
0.99992
1.0001
0.999222
1.00035
0.998447
0.999731
1.00229
0.999849
1.00016
0.999452
0.999992
1.00022
0.999375
1.0004
0.998473
0.999608
1.00213
1.00032
0.999907
0.999451
1.00005
1.00036
0.999551
1.00046
0.99845
0.999408
1.00123
1.00059
0.999449
0.999256
0.999999
1.00046
0.999732
1.00052
0.998339
0.999039
0.99885
1.00008
0.998555
0.998628
0.999631
1.0004
0.999851
1.00054
0.998073
0.998336
0.993736
0.997469
0.996553
0.997007
0.998465
0.999821
0.99975
1.00048
0.997565
0.996908
0.982587
0.989954
0.991907
0.993314
0.995593
0.998049
0.998988
1.00018
0.996764
0.994213
0.962325
0.974719
0.982062
0.985501
0.989357
0.993797
0.996799
0.999488
0.996249
0.988669
0.939614
0.957715
0.967126
0.971896
0.97769
0.984691
0.990877
0.996707
0.997825
0.981722
0.903792
0.92459
0.938992
0.947001
0.95658
0.967587
0.979423
0.990347
1.0092
0.973991
0.846254
0.860038
0.880754
0.899348
0.916077
0.930824
0.948505
0.960252
1.03125
1.02878
0.813786
0.824576
0.843456
0.86446
0.883993
0.900059
0.921033
0.928546
1.00545
1.02903
0.790732
0.799295
0.817415
0.838699
0.858962
0.875893
0.898317
0.907228
0.979317
1.04671
0.766103
0.773255
0.79075
0.811173
0.83074
0.847169
0.869441
0.882178
0.944659
1.04908
0.740395
0.746292
0.763415
0.78227
0.800038
0.814975
0.835354
0.851278
0.90308
1.02112
0.713943
0.718535
0.735323
0.752249
0.767771
0.780547
0.797713
0.814358
0.855054
0.971101
0.687004
0.690111
0.706368
0.720897
0.733612
0.743697
0.757208
0.773125
0.80301
0.90847
0.659754
0.661176
0.676418
0.688152
0.697722
0.704641
0.714042
0.72807
0.749269
0.839127
0.632282
0.63186
0.645479
0.65413
0.660385
0.663933
0.669155
0.680036
0.694482
0.766727
0.60464
0.602381
0.613787
0.619169
0.621817
0.62166
0.622391
0.629317
0.638048
0.693927
0.576971
0.572994
0.581655
0.58339
0.581576
0.576985
0.572969
0.575644
0.579372
0.620812
0.549385
0.543727
0.549001
0.546294
0.539323
0.530047
0.521718
0.520133
0.519611
0.548592
0.521767
0.514344
0.515386
0.507576
0.495587
0.482067
0.470062
0.464522
0.460454
0.479236
0.493858
0.484544
0.480784
0.4679
0.451461
0.434334
0.419292
0.410399
0.40348
0.414325
0.465419
0.454223
0.445671
0.428211
0.40795
0.387886
0.370517
0.359037
0.349973
0.354981
0.436388
0.423553
0.41058
0.389151
0.365732
0.343458
0.324475
0.311175
0.300574
0.301454
0.407
0.392765
0.375843
0.351117
0.325252
0.301481
0.281522
0.267037
0.255338
0.253279
0.377453
0.361997
0.341683
0.314369
0.286777
0.262155
0.241728
0.226501
0.213958
0.20965
0.347789
0.331385
0.30829
0.2791
0.250481
0.225559
0.205031
0.189346
0.176165
0.170125
0.318102
0.301085
0.27585
0.245482
0.216513
0.191744
0.171433
0.155537
0.14195
0.134311
0.288589
0.271293
0.244573
0.213716
0.185007
0.160829
0.140934
0.124859
0.111093
0.102113
0.259528
0.242242
0.214697
0.184005
0.15611
0.132767
0.113384
0.0974211
0.0839462
0.0741733
0.231246
0.214197
0.186469
0.156526
0.129883
0.107538
0.0890156
0.0737024
0.0610902
0.0511778
0.204085
0.187434
0.160117
0.131444
0.106323
0.0853215
0.0681156
0.0540168
0.0427559
0.0335463
0.178366
0.16223
0.135835
0.108894
0.0855338
0.0662514
0.0507882
0.0383834
0.0288113
0.0209709
0.154358
0.138832
0.113791
0.0888717
0.067557
0.0503271
0.0369411
0.0265009
0.0187405
0.0125624
0.132264
0.117433
0.094105
0.0713804
0.0523556
0.0374267
0.0262708
0.0178253
0.0118071
0.00726281
0.112224
0.0981542
0.0768173
0.0564063
0.0398299
0.0273009
0.0183158
0.0117152
0.00723929
0.00408986
0.0942947
0.081059
0.0618395
0.0438527
0.0297853
0.0195813
0.0125531
0.00755071
0.00434453
0.0022584
0.0784577
0.0661914
0.0490811
0.0335586
0.0219234
0.0138373
0.00847831
0.00479635
0.00256861
0.00122533
0.064644
0.0535323
0.0384257
0.0253061
0.0159218
0.00967371
0.00567624
0.00303669
0.00151767
0.000661644
0.826335
0.842161
0.86266
0.88251
0.900653
0.915271
0.933272
0.938581
1.0063
1.00541
0.805097
0.818865
0.840092
0.860989
0.88008
0.895516
0.915388
0.921387
0.9868
1.01771
0.781356
0.793491
0.815682
0.837391
0.856816
0.872167
0.89248
0.90158
0.960414
1.02443
0.755839
0.765989
0.788971
0.811177
0.830721
0.845712
0.864948
0.877033
0.927447
1.01094