/*--------------------------------*- C++ -*----------------------------------*\
| =========                 |                                                 |
| \\      /  F ield         | OpenFOAM: The Open Source CFD Toolbox           |
|  \\    /   O peration     | Version:  4.1                                   |
|   \\  /    A nd           | Web:      www.OpenFOAM.org                      |
|    \\/     M anipulation  |                                                 |
\*---------------------------------------------------------------------------*/
FoamFile
{
    version     2.0;
    format      ascii;
    class       volScalarField;
    location    "120";
    object      T;
}
// * * * * * * * * * * * * * * * * * * * * * * * * * * * * * * * * * * * * * //

dimensions      [0 0 0 1 0 0 0];

internalField   nonuniform List<scalar> 
12000
(
0.999583
1.00358
0.999807
1.00054
1.00055
1.00055
1.00053
0.999806
1.00359
0.999558
0.994979
0.996274
0.99554
0.996991
0.997021
0.997014
0.996979
0.995539
0.996307
0.994933
0.999372
0.994202
0.997396
0.998257
0.998159
0.998157
0.99825
0.997414
0.994232
0.999302
1.00385
0.995572
1.00083
1.00049
1.00029
1.00027
1.00049
1.00085
0.99556
1.00374
1.00496
0.996286
1.00237
1.00118
1.00117
1.00107
1.00118
1.00239
0.996229
1.00482
1.00441
0.996219
1.0025
1.00085
1.00118
1.00107
1.00085
1.00249
0.996173
1.00423
1.00371
0.996266
1.00232
1.00037
1.00095
1.00093
1.00035
1.00228
0.996255
1.00349
1.00314
0.996556
1.00214
0.999989
1.00075
1.00079
0.999954
1.00209
0.996577
1.00289
1.00259
0.996884
1.00192
0.999662
1.00054
1.00062
0.999612
1.00184
0.996919
1.00231
1.00208
0.997164
1.00163
0.999363
1.00033
1.00042
0.999312
1.00155
0.997198
1.00175
1.00166
0.997373
1.00134
0.999144
1.00014
1.00023
0.999067
1.00125
0.997411
1.00127
1.00135
0.997551
1.0011
0.999011
0.999983
1.00009
0.998896
1.00101
0.997585
1.0009
1.00117
0.997754
1.0009
0.998942
0.999873
0.999988
0.998808
1.00081
0.997746
1.00064
1.00109
0.997946
1.00075
0.998924
0.999801
0.999921
0.998776
1.00065
0.997891
1.00043
1.00109
0.998131
1.00065
0.998946
0.999761
0.999884
0.998784
1.00053
0.998022
1.00025
1.00117
0.99832
1.00058
0.998998
0.999745
0.999871
0.998822
1.00043
0.99814
1.00011
1.00134
0.998518
1.00052
0.999075
0.99975
0.99988
0.998879
1.00035
0.99824
0.999982
1.0016
0.998743
1.00048
0.999169
0.999772
0.999907
0.998954
1.0003
0.99832
0.999875
1.00191
0.999025
1.00043
0.999274
0.999814
0.999956
0.999049
1.00027
0.998379
0.999775
1.00225
0.99941
1.00036
0.999388
0.999877
1.00004
0.999165
1.00026
0.998417
0.999671
1.00253
0.999902
1.00024
0.99949
0.999956
1.00016
0.999305
1.0003
0.998425
0.999538
1.00254
1.00045
1.00005
0.999539
1.00004
1.00031
0.999478
1.00035
0.998386
0.999329
1.00195
1.00089
0.999687
0.999436
1.00006
1.00046
0.999679
1.00041
0.998266
0.998957
1.00015
1.00077
0.999007
0.998989
0.999863
1.0005
0.999865
1.00046
0.998002
0.998262
0.996086
0.998961
0.997461
0.99774
0.99905
1.00019
0.999926
1.0005
0.997521
0.996859
0.987462
0.99324
0.993795
0.994763
0.996807
0.998908
0.999501
1.0004
0.996807
0.994232
0.968568
0.979359
0.985236
0.988139
0.991657
0.99557
0.997987
1.00015
0.996436
0.98878
0.944179
0.961006
0.970811
0.975697
0.981249
0.987747
0.993217
0.998272
0.998412
0.981921
0.912198
0.932439
0.945649
0.95351
0.962672
0.973051
0.983952
0.993747
1.01026
0.973912
0.857681
0.874838
0.895806
0.912223
0.926644
0.939589
0.956062
0.967091
1.03437
1.0264
1.00359
1.00675
1.00301
1.00391
1.00387
1.00387
1.00391
1.00301
1.00679
1.00354
0.996298
0.996863
0.996392
0.998265
0.998221
0.998219
0.99825
0.996387
0.996959
0.99624
0.994235
0.98974
0.992956
0.993843
0.993639
0.993629
0.993825
0.99297
0.989826
0.994131
0.995617
0.987826
0.993448
0.992816
0.99245
0.99245
0.992795
0.993474
0.987909
0.995468
0.996341
0.987434
0.994339
0.992675
0.992441
0.992501
0.992655
0.994364
0.987536
0.996152
0.996289
0.987519
0.994654
0.992459
0.992628
0.99271
0.992432
0.994668
0.987594
0.9961
0.996358
0.988188
0.994892
0.992426
0.993038
0.993084
0.992389
0.994891
0.988212
0.996185
0.996679
0.989334
0.995353
0.992736
0.993675
0.993693
0.992687
0.995322
0.989299
0.996501
0.997048
0.990589
0.995896
0.993258
0.994389
0.994402
0.993189
0.995847
0.990509
0.996832
0.997382
0.991706
0.996379
0.99382
0.995045
0.995067
0.993727
0.996308
0.991606
0.997084
0.997659
0.992694
0.996788
0.994352
0.995607
0.995644
0.994246
0.996688
0.992571
0.997263
0.99792
0.993586
0.997137
0.99486
0.996091
0.996143
0.994747
0.997011
0.993425
0.997413
0.998232
0.99434
0.997447
0.99535
0.996512
0.996581
0.995217
0.997297
0.994152
0.997556
0.998558
0.994991
0.997733
0.995819
0.996883
0.99697
0.995658
0.997555
0.994768
0.997682
0.9989
0.99557
0.99798
0.996257
0.997209
0.997315
0.996067
0.997782
0.99528
0.997811
0.999268
0.996089
0.998201
0.996663
0.997499
0.997622
0.996445
0.997983
0.995692
0.997947
0.99965
0.996577
0.998401
0.997037
0.997758
0.997898
0.996793
0.998169
0.996032
0.99805
1.00003
0.99705
0.99858
0.997376
0.997989
0.998148
0.997111
0.998342
0.996308
0.998102
1.00041
0.997516
0.998721
0.997674
0.998193
0.998372
0.997394
0.998498
0.996517
0.998095
1.00074
0.997966
0.998794
0.997918
0.998367
0.998569
0.997644
0.998623
0.996649
0.998014
1.00095
0.99841
0.99878
0.998085
0.9985
0.998732
0.997854
0.9987
0.996681
0.997827
1.00084
0.998818
0.998651
0.998138
0.998565
0.998845
0.998012
0.998717
0.996576
0.997478
1.0002
0.999067
0.998332
0.998006
0.998508
0.998872
0.998094
0.998647
0.996275
0.996857
0.998631
0.998867
0.997674
0.997523
0.99819
0.998719
0.998052
0.998448
0.99569
0.99578
0.995253
0.997495
0.996274
0.996337
0.997316
0.998193
0.997791
0.998082
0.994702
0.993834
0.988196
0.993301
0.993161
0.993686
0.995242
0.996823
0.997033
0.997476
0.993261
0.99049
0.973987
0.983052
0.986181
0.988092
0.990837
0.993785
0.995318
0.996636
0.991783
0.984067
0.951148
0.965025
0.97292
0.977286
0.981985
0.987074
0.990969
0.994577
0.992331
0.975856
0.91569
0.934859
0.948871
0.957835
0.966057
0.974294
0.982453
0.989803
1.00113
0.964748
0.865867
0.88538
0.904803
0.921236
0.935182
0.946798
0.960261
0.968623
1.02496
1.00631
0.999819
1.00301
0.998896
0.999618
0.999577
0.999576
0.999614
0.998897
1.00306
0.999753
0.99557
0.996402
0.996001
0.997902
0.997907
0.9979
0.997879
0.995984
0.996495
0.9955
0.997443
0.992971
0.996511
0.997542
0.997367
0.997353
0.997516
0.99653
0.993067
0.997308
1.00089
0.993464
0.999435
0.998787
0.998441
0.998433
0.998761
0.999463
0.993525
1.00074
1.00244
0.994355
1.00165
0.999837
0.999728
0.999735
0.999809
1.00167
0.99438
1.00229
1.00257
0.994671
1.00229
0.999948
1.00038
1.00037
0.999918
1.0023
0.99466
1.00242
1.0024
0.994906
1.00219
0.999594
1.00053
1.00051
0.999563
1.00219
0.994867
1.00223
1.00224
0.995356
1.00201
0.999272
1.00055
1.00052
0.999244
1.00201
0.995289
1.00204
1.00203
0.995891
1.00186
0.999089
1.00056
1.00054
0.999053
1.00184
0.995789
1.00183
1.00177
0.996365
1.00168
0.998968
1.00052
1.00052
0.998915
1.00164
0.996243
1.00153
1.00152
0.996758
1.00145
0.998866
1.00043
1.00046
0.9988
1.00139
0.996626
1.0012
1.00133
0.99709
1.00121
0.998798
1.00032
1.00036
0.998716
1.00114
0.996951
1.00092
1.00122
0.997368
1.001
0.998771
1.0002
1.00026
0.99867
1.00091
0.997232
1.00068
1.00116
0.997618
1.00082
0.99878
1.00009
1.00017
0.998658
1.0007
0.99747
1.00049
1.00117
0.99784
1.00065
0.998813
0.999988
1.0001
0.998669
1.00052
0.997663
1.00032
1.00125
0.998037
1.0005
0.998861
0.999902
1.00003
0.998698
1.00037
0.997818
1.00017
1.00138
0.998228
1.00037
0.99892
0.999832
0.999981
0.99874
1.00025
0.997941
1.00002
1.00156
0.998432
1.00025
0.998985
0.999776
0.999945
0.998789
1.00015
0.998039
0.999869
1.00176
0.998656
1.00014
0.999046
0.999733
0.999921
0.998842
1.00008
0.998104
0.999694
1.00193
0.998898
1.00001
0.999086
0.999694
0.999906
0.998894
1.00001
0.998115
0.99949
1.00201
0.999157
0.999822
0.999084
0.999646
0.999891
0.998937
0.999934
0.998053
0.99922
1.00184
0.999402
0.999544
0.998997
0.999565
0.999862
0.99896
0.999839
0.997884
0.998822
1.00117
0.999503
0.999099
0.998751
0.999396
0.999789
0.998945
0.999697
0.997555
0.998191
0.999524
0.999156
0.99833
0.998197
0.999019
0.999594
0.998856
0.999477
0.99698
0.997148
0.996133
0.997712
0.996864
0.997031
0.998192
0.999121
0.998628
0.99916
0.996054
0.995291
0.989652
0.993887
0.993882
0.994641
0.996412
0.99801
0.998061
0.998729
0.994745
0.99211
0.977954
0.985661
0.987927
0.989959
0.992849
0.995671
0.996871
0.998331
0.993559
0.985988
0.959195
0.970805
0.976873
0.98123
0.985949
0.990659
0.993874
0.997382
0.994774
0.978165
0.930983
0.946334
0.957727
0.966302
0.974095
0.981479
0.988385
0.995176
1.00543
0.96794
0.889837
0.907574
0.925116
0.93967
0.951572
0.961089
0.972237
0.978827
1.03351
1.00997
1.00055
1.00392
0.999619
1.00039
1.00036
1.00036
1.00039
0.999617
1.00397
1.00048
0.997023
0.998278
0.997906
1.00002
1.00004
1.00003
0.999995
0.997886
0.998374
0.996951
0.998313
0.993861
0.997549
0.998832
0.998652
0.998637
0.998803
0.997569
0.993956
0.998164
1.00058
0.992831
0.99879
0.998236
0.997847
0.997835
0.998211
0.998818
0.99288
1.00041
1.00126
0.992704
0.999842
0.997964
0.997795
0.997792
0.99794
0.999865
0.992719
1.00109
1.00093
0.992491
0.999946
0.997422
0.997786
0.997792
0.997396
0.99996
0.99251
1.00072
1.00047
0.992435
0.999585
0.996721
0.997589
0.997602
0.996691
0.99958
0.992455
1.00023
1.0001
0.992728
0.999262
0.996193
0.997394
0.997415
0.996157
0.999234
0.992718
0.999864
0.99978
0.993226
0.999074
0.995934
0.997323
0.997358
0.995888
0.999031
0.993192
0.999526
0.999513
0.993763
0.998947
0.995863
0.997339
0.997392
0.995799
0.998886
0.99372
0.999197
0.999327
0.994278
0.998843
0.995901
0.997388
0.997459
0.995812
0.998765
0.994232
0.998924
0.999234
0.994774
0.998773
0.996022
0.997458
0.997547
0.995908
0.998683
0.994723
0.998719
0.999236
0.99525
0.998743
0.99621
0.997553
0.997663
0.996072
0.998645
0.99518
0.998586
0.999316
0.995703
0.998748
0.996447
0.997673
0.997805
0.996284
0.99864
0.99559
0.998522
0.999465
0.996129
0.998775
0.996712
0.997809
0.99796
0.996524
0.998656
0.995951
0.998506
0.999669
0.996532
0.99882
0.996991
0.997951
0.998122
0.996775
0.998693
0.996272
0.998503
0.999919
0.996921
0.998876
0.997271
0.998098
0.998286
0.997027
0.998746
0.996556
0.998496
1.00021
0.997299
0.998929
0.997542
0.998245
0.998449
0.997273
0.998807
0.996794
0.998474
1.00051
0.997675
0.998967
0.997793
0.998385
0.998605
0.997506
0.99887
0.996977
0.998424
1.00081
0.998057
0.998971
0.998007
0.998513
0.998752
0.99772
0.998926
0.997092
0.998325
1.00101
0.998447
0.998916
0.99816
0.998618
0.998883
0.997908
0.998965
0.997119
0.998143
1.00099
0.998815
0.998775
0.998221
0.998681
0.998989
0.998065
0.998971
0.997026
0.997824
1.00054
0.999063
0.998484
0.99813
0.998666
0.999052
0.998181
0.998927
0.996769
0.997269
0.999242
0.998935
0.997923
0.997768
0.998484
0.999023
0.998244
0.998825
0.996276
0.996316
0.996417
0.997866
0.996784
0.996909
0.997963
0.998808
0.998238
0.998693
0.995481
0.994606
0.990931
0.994802
0.994419
0.995097
0.996743
0.998167
0.998057
0.99859
0.994426
0.991678
0.981048
0.988083
0.989667
0.991541
0.994232
0.996704
0.997569
0.998801
0.993751
0.98607
0.964731
0.975437
0.980573
0.984717
0.989083
0.993152
0.995726
0.998847
0.995842
0.978972
0.93936
0.953794
0.964283
0.972471
0.979575
0.98588
0.991738
0.997956
1.00789
0.970231
0.901329
0.918608
0.93558
0.948934
0.95903
0.966598
0.976226
0.981914
1.03694
1.01271
1.00057
1.00387
0.999579
1.00036
1.00032
1.00032
1.00035
0.999575
1.00393
1.0005
0.997055
0.998238
0.997916
1.00005
1.00006
1.00005
1.00002
0.997895
0.998342
0.996983
0.998222
0.993664
0.997382
0.998663
0.998457
0.998441
0.998629
0.997401
0.993764
0.998076
1.00035
0.992506
0.99847
0.997865
0.997436
0.997422
0.997836
0.998493
0.992547
1.00019
1.00116
0.992564
0.999768
0.997822
0.997618
0.997612
0.997794
0.999784
0.992567
1.001
1.00116
0.992774
1.0004
0.997822
0.998182
0.998182
0.997792
1.0004
0.99277
1.00096
1.00099
0.993158
1.00054
0.997635
0.998539
0.998544
0.997599
1.00051
0.993131
1.00079
1.00084
0.993764
1.00054
0.997455
0.998724
0.998738
0.997409
1.0005
0.993697
1.00065
1.0007
0.99444
1.00054
0.997399
0.998881
0.99891
0.997341
1.00049
0.994359
1.00047
1.00055
0.995066
1.0005
0.997432
0.999018
0.999066
0.997354
1.00044
0.994984
1.00026
1.00043
0.995602
1.00041
0.997495
0.999103
0.999172
0.997394
1.00035
0.995532
1.00004
1.00035
0.996067
1.00029
0.997578
0.999141
0.999233
0.997454
1.00024
0.995997
0.999853
1.00033
0.996479
1.00019
0.99769
0.999162
0.999274
0.997542
1.00013
0.996384
0.999723
1.00035
0.996848
1.0001
0.997828
0.999179
0.999316
0.997658
1.00003
0.996715
0.999623
1.00043
0.997178
1.00002
0.997982
0.9992
0.99936
0.99779
0.999948
0.996997
0.999539
1.00057
0.997476
0.999946
0.998142
0.999221
0.999402
0.997928
0.999876
0.997237
0.99946
1.00075
0.997754
0.999882
0.998302
0.999244
0.999445
0.998067
0.999817
0.997437
0.999378
1.00096
0.998023
0.999819
0.998454
0.999267
0.999486
0.998202
0.99977
0.997593
0.999283
1.0012
0.998296
0.999748
0.99859
0.999286
0.999524
0.998328
0.999731
0.9977
0.999163
1.00142
0.998584
0.999654
0.9987
0.9993
0.999559
0.998442
0.999692
0.997746
0.998998
1.00157
0.998896
0.999518
0.998764
0.999302
0.999587
0.998538
0.999643
0.997714
0.998759
1.00154
0.999213
0.999313
0.998756
0.999277
0.999603
0.998612
0.999572
0.997571
0.998392
1.00113
0.999449
0.99898
0.99862
0.999194
0.999594
0.998663
0.999467
0.997273
0.997802
0.999954
0.999368
0.998406
0.998249
0.998979
0.999521
0.998682
0.999322
0.996759
0.996831
0.997386
0.998457
0.997315
0.997437
0.998485
0.999311
0.998669
0.999178
0.995969
0.99513
0.992344
0.995735
0.995114
0.995768
0.997386
0.998753
0.998538
0.99911
0.994957
0.992245
0.983118
0.989617
0.990719
0.992493
0.995117
0.997467
0.998167
0.999399
0.994363
0.986689
0.967394
0.977673
0.982177
0.986106
0.990326
0.994182
0.996505
0.999554
0.996549
0.979602
0.942273
0.956579
0.966518
0.97436
0.981191
0.987185
0.992718
0.998749
1.00868
0.970598
0.904766
0.922023
0.93871
0.951492
0.961036
0.968136
0.977403
0.98272
1.03785
1.0129
1.00057
1.00387
0.999579
1.00036
1.00032
1.00032
1.00035
0.999576
1.00393
1.0005
0.997054
0.998237
0.997915
1.00005
1.00006
1.00004
1.00002
0.997895
0.998339
0.99698
0.998223
0.993661
0.997379
0.998659
0.998451
0.998437
0.998627
0.9974
0.99376
0.998073
1.00035
0.992499
0.998467
0.997861
0.99743
0.997417
0.997832
0.998491
0.992543
1.00019
1.00117
0.992555
0.999769
0.99782
0.997616
0.997606
0.997791
0.999784
0.992566
1.001
1.00117
0.992766
1.0004
0.997821
0.99818
0.998176
0.99779
1.0004
0.992768
1.00096
1.00103
0.993138
1.00053
0.997631
0.998535
0.99854
0.997598
1.00051
0.993126
1.00079
1.00089
0.99373
1.00054
0.997446
0.998718
0.998733
0.997405
1.0005
0.993691
1.00066
1.00074
0.994414
1.00054
0.997388
0.998874
0.998905
0.997335
1.00049
0.994359
1.00047
1.00055
0.995055
1.00051
0.997419
0.999013
0.999062
0.997349
1.00044
0.994995
1.00023
1.00041
0.995601
1.00042
0.997482
0.999097
0.999168
0.99739
1.00035
0.995543
1.00002
1.00033
0.996066
1.00031
0.997565
0.999133
0.999228
0.997449
1.00023
0.996003
0.999841
1.0003
0.996477
1.0002
0.997676
0.999151
0.999268
0.997535
1.00012
0.996386
0.999724
1.00032
0.996844
1.0001
0.997813
0.999166
0.999307
0.997647
1.00001
0.99671
0.99964
1.00041
0.997167
1.00002
0.997964
0.999184
0.999347
0.997773
0.999918
0.996988
0.99956
1.00053
0.99746
0.999939
0.998121
0.999202
0.999385
0.997905
0.999844
0.997227
0.99947
1.0007
0.997732
0.999867
0.998276
0.99922
0.999422
0.99804
0.999784
0.997427
0.999372
1.00091
0.997994
0.999796
0.998422
0.999235
0.999456
0.998171
0.999733
0.997582
0.999268
1.00114
0.998258
0.999714
0.998551
0.999247
0.999486
0.998291
0.999687
0.997683
0.999142
1.00135
0.998536
0.999608
0.998651
0.999252
0.999512
0.998399
0.999639
0.99772
0.998975
1.00149
0.998833
0.999456
0.998704
0.999243
0.999529
0.998488
0.99958
0.997675
0.99873
1.00144
0.999132
0.999232
0.99868
0.999203
0.99953
0.998551
0.999494
0.997516
0.998354
1.00099
0.999344
0.998876
0.998522
0.999097
0.999497
0.998582
0.999367
0.997196
0.997751
0.999764
0.999226
0.998273
0.99812
0.99885
0.999391
0.998571
0.999194
0.996648
0.996759
0.997103
0.998248
0.997136
0.99726
0.998306
0.999132
0.998512
0.99901
0.995814
0.995021
0.991937
0.995421
0.994861
0.995522
0.997136
0.998503
0.998313
0.998878
0.994743
0.992082
0.982602
0.989171
0.990359
0.992148
0.994764
0.997112
0.997839
0.999065
0.994059
0.986439
0.966835
0.977104
0.981693
0.985644
0.989852
0.993703
0.996056
0.999108
0.996154
0.9793
0.941825
0.95595
0.96587
0.973711
0.980518
0.986491
0.992044
0.998085
1.00806
0.970106
0.904216
0.921295
0.937938
0.950747
0.960295
0.967393
0.976696
0.982074
1.03729
1.01266
1.00055
1.00391
0.999618
1.00039
1.00036
1.00035
1.00039
0.999613
1.00397
1.00048
0.997022
0.998268
0.997893
1.00001
1.00003
1.00002
0.999978
0.997871
0.998366
0.996939
0.998309
0.993857
0.997541
0.998822
0.998636
0.998623
0.99879
0.997558
0.993946
0.998167
1.0006
0.99282
0.998788
0.998232
0.997838
0.997826
0.998209
0.998818
0.99287
1.00042
1.00133
0.992657
0.999843
0.997963
0.997794
0.997786
0.997944
0.999869
0.992706
1.00111
1.001
0.992435
0.999961
0.997422
0.997792
0.997787
0.997401
0.999959
0.992461
1.00079
1.00049
0.992402
0.999611
0.996719
0.997598
0.9976
0.996692
0.999579
0.992383
1.0003
1.00008
0.992716
0.999295
0.996191
0.997405
0.997418
0.996152
0.999241
0.992658
0.999893
0.999747
0.993228
0.999106
0.995931
0.997336
0.997363
0.995878
0.99904
0.993146
0.999524
0.999471
0.993771
0.998973
0.995856
0.997351
0.997396
0.995784
0.998898
0.993677
0.999188
0.999284
0.99429
0.99886
0.995891
0.997396
0.99746
0.995797
0.998785
0.99419
0.998906
0.999197
0.99479
0.998782
0.996009
0.997462
0.997548
0.99589
0.998706
0.994679
0.998696
0.999198
0.995268
0.998747
0.996197
0.997553
0.997662
0.996051
0.998674
0.995137
0.998556
0.999275
0.995718
0.998747
0.996434
0.997668
0.9978
0.99626
0.998676
0.995555
0.998477
0.999419
0.996139
0.998765
0.996696
0.997798
0.997951
0.996495
0.998693
0.995923
0.998447
0.999616
0.996534
0.998797
0.996967
0.997935
0.998108
0.99674
0.998723
0.996248
0.998437
0.999856
0.996912
0.998838
0.997239
0.998075
0.998268
0.996987
0.998768
0.996532
0.998423
1.00013
0.997275
0.998879
0.997501
0.998212
0.998425
0.99723
0.998819
0.99677
0.998396
1.00041
0.997634
0.998904
0.99774
0.998342
0.998575
0.997459
0.99887
0.996952
0.998348
1.00067
0.997992
0.998892
0.997941
0.998457
0.998713
0.99767
0.998915
0.997064
0.998253
1.00083
0.998347
0.998817
0.998078
0.998546
0.998833
0.997855
0.998943
0.997089
0.998069
1.00075
0.998669
0.998649
0.998118
0.998589
0.99892
0.998
0.998931
0.996987
0.997746
1.0002
0.998845
0.998315
0.997991
0.998539
0.99895
0.998095
0.998864
0.996711
0.99718
0.998744
0.998595
0.997677
0.997568
0.998296
0.998863
0.998112
0.99872
0.996181
0.996207
0.995663
0.997309
0.996397
0.996596
0.997669
0.998547
0.998017
0.998512
0.99532
0.994442
0.989793
0.993899
0.993788
0.994591
0.996272
0.997739
0.997683
0.998278
0.99416
0.99142
0.97951
0.986736
0.988659
0.990715
0.993472
0.996001
0.996937
0.998244
0.993286
0.985611
0.96291
0.973642
0.9791
0.983464
0.987936
0.992092
0.994764
0.997979
0.995165
0.978393
0.937357
0.951482
0.962096
0.970492
0.97775
0.98417
0.990133
0.996412
1.0066
0.969032
0.89864
0.915656
0.932698
0.946347
0.956754
0.964586
0.974419
0.980257
1.03574
1.01239
0.999819
1.00301
0.998896
0.999618
0.999577
0.999575
0.999611
0.998892
1.00306
0.999752
0.995571
0.996399
0.995985
0.997885
0.997892
0.997885
0.997858
0.995966
0.996493
0.995494
0.997459
0.992984
0.996529
0.99756
0.997384
0.997373
0.997534
0.996551
0.993088
0.997328
1.00092
0.993464
0.999457
0.998806
0.998463
0.998453
0.998784
0.999488
0.993524
1.00077
1.00246
0.994336
1.00167
0.999848
0.999745
0.999735
0.999828
1.00168
0.994349
1.00233
1.00258
0.994638
1.00229
0.99994
1.00036
1.00036
0.999923
1.00231
0.994619
1.00244
1.00239
0.994868
1.00218
0.999569
1.00048
1.00048
0.999543
1.00219
0.99484
1.00221
1.00221
0.995321
1.00199
0.999243
1.00047
1.00049
0.9992
1.00199
0.995266
1.00201
1.00199
0.995857
1.00183
0.999052
1.00047
1.0005
0.998992
1.00181
0.995763
1.00179
1.00174
0.996327
1.00163
0.998928
1.00043
1.00047
0.998846
1.00159
0.996205
1.0015
1.00149
0.996721
1.0014
0.998831
1.00034
1.0004
0.998726
1.00135
0.996573
1.00119
1.00128
0.997054
1.00116
0.998768
1.00023
1.0003
0.998636
1.0011
0.996892
1.0009
1.00117
0.997329
1.00095
0.998747
1.00011
1.00021
0.99859
1.00088
0.997175
1.00066
1.00111
0.997573
1.00077
0.998756
1
1.00012
0.998578
1.00067
0.997417
1.00046
1.00112
0.997786
1.00059
0.998783
0.999905
1.00004
0.998591
1.00049
0.997615
1.00027
1.00118
0.997985
1.00044
0.998821
0.99982
0.999968
0.998618
1.00034
0.997773
1.00012
1.00129
0.99818
1.0003
0.99887
0.999749
0.999913
0.998658
1.0002
0.997902
0.999967
1.00145
0.998368
1.00017
0.998921
0.999688
0.999871
0.998707
1.00009
0.997999
0.999813
1.00161
0.998564
1.00004
0.998964
0.999635
0.99984
0.998758
1.00001
0.998058
0.999642
1.00174
0.998771
0.999886
0.998984
0.999582
0.999816
0.998806
0.999927
0.998064
0.999433
1.00175
0.998989
0.999673
0.998958
0.999515
0.999787
0.998842
0.999844
0.997997
0.999151
1.00148
0.999178
0.999353
0.998837
0.999401
0.999733
0.998847
0.999731
0.997815
0.998735
1.00067
0.999191
0.998845
0.998536
0.99918
0.99961
0.998797
0.999555
0.997458
0.998075
0.998795
0.998686
0.997961
0.997878
0.998707
0.999322
0.998635
0.999269
0.996824
0.996979
0.995027
0.996932
0.996269
0.996512
0.997693
0.998674
0.998261
0.99883
0.995787
0.99502
0.987886
0.992562
0.992887
0.993766
0.995582
0.997254
0.997425
0.998173
0.994286
0.991665
0.975371
0.983553
0.986301
0.988503
0.991473
0.9944
0.995765
0.997353
0.992753
0.985185
0.955932
0.967862
0.974498
0.979037
0.983832
0.98866
0.992083
0.995771
0.993482
0.977
0.92631
0.941817
0.953891
0.962851
0.97082
0.978326
0.985416
0.992342
1.00309
0.965597
0.883032
0.900803
0.919089
0.93435
0.94685
0.956875
0.968442
0.975246
1.03073
1.00874
1.0036
1.00678
1.00306
1.00396
1.00392
1.00392
1.00396
1.00306
1.00684
1.00355
0.996318
0.996946
0.996476
0.99835
0.99831
0.998303
0.998332
0.996472
0.99707
0.996278
0.994239
0.989818
0.993041
0.993916
0.993711
0.993703
0.9939
0.993062
0.989941
0.994165
0.99561
0.987859
0.99348
0.992835
0.992484
0.992477
0.992815
0.993496
0.987912
0.995507
0.996332
0.987419
0.994325
0.992664
0.992495
0.992484
0.99264
0.99433
0.987416
0.996197
0.996276
0.987475
0.994607
0.992421
0.992675
0.992664
0.99241
0.994608
0.987419
0.996113
0.996341
0.988129
0.994827
0.992359
0.99303
0.993033
0.992356
0.994822
0.988039
0.996147
0.996656
0.989271
0.99528
0.992657
0.99362
0.993635
0.992635
0.995263
0.989154
0.996425
0.997018
0.990527
0.995823
0.993166
0.994307
0.994333
0.993122
0.995793
0.990388
0.996743
0.997323
0.991671
0.996312
0.993723
0.994954
0.994988
0.993656
0.99626
0.991502
0.996995
0.997585
0.992681
0.996718
0.994265
0.995518
0.995564
0.994178
0.996645
0.992464
0.997188
0.997865
0.993557
0.997057
0.994783
0.996002
0.996067
0.994671
0.996975
0.993303
0.997351
0.998183
0.994296
0.997356
0.995277
0.996421
0.996506
0.995139
0.997276
0.994037
0.997486
0.998494
0.994941
0.997633
0.995745
0.996786
0.996892
0.995578
0.997532
0.99467
0.997599
0.998816
0.99551
0.997876
0.996178
0.997107
0.997232
0.995983
0.997748
0.99519
0.997723
0.999149
0.996022
0.99809
0.996572
0.997389
0.997533
0.996356
0.997945
0.995604
0.997857
0.999481
0.996498
0.998279
0.996932
0.997637
0.9978
0.996697
0.99812
0.995945
0.997954
0.999822
0.99694
0.998434
0.997251
0.997853
0.998035
0.997003
0.998273
0.996221
0.997998
1.00015
0.997355
0.998533
0.997519
0.998035
0.998238
0.997273
0.998398
0.996425
0.997982
1.00044
0.997747
0.998559
0.997728
0.99818
0.998409
0.997503
0.99849
0.996547
0.997892
1.00058
0.998128
0.998491
0.997858
0.998278
0.99854
0.997688
0.998538
0.996564
0.997692
1.00039
0.99848
0.998304
0.997867
0.998298
0.998609
0.997813
0.998522
0.99644
0.997326
0.999654
0.998673
0.997923
0.997669
0.99818
0.998574
0.997849
0.998408
0.996112
0.996683
0.997889
0.998363
0.997177
0.997081
0.997762
0.998325
0.99773
0.998145
0.99548
0.995574
0.994039
0.99668
0.995579
0.995682
0.996691
0.997631
0.997336
0.997682
0.994422
0.993577
0.985785
0.991633
0.992016
0.992646
0.994268
0.995968
0.996341
0.996907
0.992861
0.990151
0.970191
0.980143
0.984221
0.98637
0.98925
0.99241
0.994199
0.995746
0.991191
0.98354
0.946849
0.961568
0.970331
0.974872
0.979623
0.984885
0.989098
0.993053
0.991372
0.975165
0.909022
0.929065
0.944205
0.953691
0.96218
0.970574
0.979051
0.986892
0.999435
0.96314
0.856589
0.876237
0.896118
0.913162
0.92799
0.940351
0.954548
0.963461
1.02195
1.00592
0.999563
1.00354
0.999752
1.00048
1.00049
1.00049
1.00047
0.999751
1.00356
0.999502
0.994941
0.996229
0.995482
0.996924
0.996953
0.996949
0.996911
0.995479
0.996282
0.994863
0.999324
0.994121
0.997298
0.99815
0.998051
0.998044
0.998137
0.99732
0.994179
0.999164
1.0038
0.995502
1.00075
1.00041
1.00017
1.00017
1.00041
1.00078
0.99554
1.00362
1.00493
0.996245
1.00232
1.00113
1.00101
1.00102
1.00113
1.00236
0.996251
1.00477
1.00438
0.99621
1.00248
1.00084
1.00105
1.00106
1.00081
1.00249
0.996185
1.00424
1.00369
0.996285
1.00233
1.0004
1.00092
1.00092
1.00034
1.00231
0.996246
1.00355
1.00313
0.996594
1.00217
1.00003
1.00079
1.00079
0.999977
1.00211
0.996553
1.00296
1.00259
0.996935
1.00196
0.999713
1.00062
1.00063
0.999662
1.00187
0.996901
1.00238
1.00208
0.997196
1.00168
0.99942
1.00042
1.00045
0.999369
1.00157
0.997187
1.00181
1.00165
0.997394
1.0014
0.999184
1.00022
1.00027
0.999124
1.00127
0.997414
1.00132
1.00134
0.997593
1.00115
0.999036
1.00007
1.00012
0.998962
1.00101
0.997598
1.00095
1.00116
0.997805
1.00095
0.99896
0.999955
1.00002
0.99887
1.00079
0.997746
1.00067
1.00107
0.997991
1.0008
0.998939
0.999882
0.99995
0.998832
1.00063
0.997882
1.00045
1.00107
0.998169
1.00068
0.998961
0.999837
0.999915
0.998834
1.00052
0.998015
1.00027
1.00115
0.998344
1.0006
0.999013
0.999813
0.999902
0.998863
1.00042
0.998134
1.00013
1.0013
0.998523
1.00054
0.999086
0.999808
0.999912
0.998915
1.00036
0.998236
1.00001
1.00154
0.998737
1.00048
0.999174
0.999824
0.999948
0.998992
1.00033
0.99832
0.999911
1.00182
0.999015
1.00042
0.999275
0.999862
1.00001
0.999095
1.00033
0.998392
0.999823
1.00211
0.99939
1.00032
0.999379
0.999921
1.0001
0.999223
1.00035
0.998447
0.999731
1.0023
0.999854
1.00016
0.999455
0.999994
1.00022
0.999376
1.0004
0.998473
0.999608
1.00214
1.00033
0.999914
0.999456
1.00005
1.00036
0.999553
1.00046
0.998451
0.999409
1.00125
1.00061
0.999463
0.999266
1.00001
1.00047
0.999735
1.00052
0.998341
0.999041
0.998895
1.00012
0.998583
0.998649
0.999646
1.00041
0.999859
1.00054
0.998077
0.99834
0.993821
0.997539
0.996606
0.997046
0.998494
0.999842
0.999764
1.00049
0.997573
0.996914
0.982739
0.990081
0.992006
0.993388
0.995648
0.998088
0.999016
1.0002
0.996777
0.994223
0.962576
0.974938
0.982236
0.985636
0.989458
0.993871
0.996851
0.999523
0.996273
0.988687
0.940005
0.958068
0.967419
0.972128
0.977868
0.984825
0.990974
0.996773
0.997869
0.981753
0.904358
0.925119
0.939448
0.947375
0.956879
0.967819
0.979597
0.990471
1.00929
0.974045
0.847011
0.860756
0.881397
0.8999
0.916539
0.9312
0.948802
0.960472
1.03141
1.02888
0.814632
0.82538
0.844184
0.865097
0.884537
0.900513
0.921403
0.928828
1.00567
1.02917
0.791638
0.800157
0.8182
0.839394
0.859564
0.876404
0.898743
0.907562
0.979579
1.04689
0.767063
0.774169
0.791589
0.811921
0.831396
0.847734
0.869922
0.882569
0.944975
1.04932
0.741404
0.747254
0.764301
0.783066
0.800743
0.815591
0.835888
0.851726
0.903453
1.02142
0.714995
0.719536
0.73625
0.753088
0.76852
0.781209
0.798295
0.81486
0.855482
0.971469
0.688091
0.691146
0.70733
0.721771
0.734399
0.7444
0.757832
0.773675
0.803489
0.908898
0.66087
0.662237
0.677408
0.689055
0.698539
0.705377
0.714702
0.728661
0.749792
0.839607
0.63342
0.632941
0.64649
0.655054
0.661226
0.664696
0.669845
0.680661
0.695043
0.76725
0.605793
0.603475
0.614812
0.62011
0.622676
0.622442
0.623102
0.629967
0.638637
0.694482
0.578132
0.574096
0.582689
0.584341
0.582446
0.577779
0.573695
0.57631
0.579979
0.621387
0.550549
0.544831
0.550038
0.547248
0.540196
0.530845
0.522448
0.520805
0.520227
0.549177
0.522928
0.515444
0.51642
0.508526
0.496456
0.482861
0.470787
0.465191
0.461067
0.479818
0.495009
0.485636
0.481808
0.468839
0.452317
0.435115
0.420004
0.411054
0.404082
0.414895
0.466555
0.4553
0.446678
0.429132
0.408787
0.388646
0.371207
0.359671
0.350554
0.355529
0.437501
0.424608
0.411564
0.390047
0.366543
0.344189
0.325137
0.311779
0.301126
0.301973
0.408086
0.393793
0.376797
0.351982
0.326029
0.302177
0.282148
0.267605
0.255854
0.253762
0.378505
0.362992
0.342602
0.315196
0.287513
0.262809
0.242312
0.227026
0.214432
0.21009
0.348801
0.332341
0.309167
0.279881
0.25117
0.226164
0.205565
0.189822
0.176589
0.170516
0.319068
0.301995
0.276677
0.246212
0.217148
0.192296
0.171914
0.15596
0.142321
0.134647
0.289503
0.272151
0.245346
0.214388
0.185584
0.161323
0.141357
0.125223
0.111405
0.102389
0.260384
0.243044
0.215409
0.184616
0.156626
0.133201
0.113747
0.0977254
0.0841996
0.0743893
0.23204
0.214937
0.187117
0.157073
0.130336
0.10791
0.0893191
0.073948
0.0612876
0.0513379
0.204815
0.188109
0.1607
0.131926
0.106714
0.0856336
0.0683617
0.0542083
0.0429034
0.0336588
0.179029
0.162839
0.136351
0.109312
0.0858638
0.0665066
0.0509822
0.0385277
0.0289171
0.021046
0.154953
0.139373
0.114241
0.0892279
0.06783
0.0505307
0.0370899
0.0266063
0.0188136
0.0126104
0.132793
0.117908
0.094492
0.0716785
0.0525766
0.0375854
0.026382
0.0179001
0.0118558
0.00729224
0.112689
0.0985659
0.0771452
0.0566511
0.0400052
0.0274219
0.018397
0.0117669
0.00727076
0.00410741
0.0946984
0.0814108
0.0621129
0.0440502
0.0299215
0.0196718
0.0126113
0.00758559
0.00436439
0.00226861
0.0788042
0.066488
0.0493054
0.0337151
0.0220275
0.0139038
0.00851925
0.0048195
0.00258092
0.00123115
0.0649379
0.0537794
0.0386069
0.025428
0.0159999
0.00972186
0.00570469
0.00305195
0.00152527
0.000664922
0.827122
0.842889
0.863298
0.883052
0.901106
0.915643
0.933571
0.938805
1.00646
1.00552
0.805944
0.819652
0.840788
0.861587
0.880586
0.895938
0.915734
0.921654
0.987005
1.01785
0.782259
0.794333
0.816434
0.838044
0.857376
0.872641
0.892876
0.901895
0.960664
1.02462
0.756794
0.766879
0.789773
0.811881
0.831332
0.846237
0.865395
0.8774
0.927746
1.01117
0.730053
0.737594
0.760986
0.782836